V -t * -v 1.0a5 -a 0
A -t * -n 1 -p 0 -o 0x7fffffff -c 30 -a 1
A -t * -h 1 -m 1073741823 -s 0
n -t * -a 35 -s 35 -S UP -v circle -c black -i black
n -t * -a 36 -s 36 -S UP -v circle -c black -i black
n -t * -a 37 -s 37 -S UP -v circle -c black -i black
n -t * -a 38 -s 38 -S UP -v circle -c black -i black
n -t * -a 39 -s 39 -S UP -v circle -c black -i black
n -t * -a 40 -s 40 -S UP -v circle -c black -i black
n -t * -a 41 -s 41 -S UP -v circle -c black -i black
n -t * -a 42 -s 42 -S UP -v circle -c black -i black
n -t * -a 43 -s 43 -S UP -v circle -c black -i black
n -t * -a 44 -s 44 -S UP -v circle -c black -i black
n -t * -a 45 -s 45 -S UP -v circle -c black -i black
n -t * -a 46 -s 46 -S UP -v circle -c black -i black
n -t * -a 47 -s 47 -S UP -v circle -c black -i black
n -t * -a 48 -s 48 -S UP -v circle -c black -i black
n -t * -a 50 -s 50 -S UP -v circle -c black -i black
n -t * -a 49 -s 49 -S UP -v circle -c black -i black
n -t * -a 51 -s 51 -S UP -v circle -c black -i black
n -t * -a 52 -s 52 -S UP -v circle -c black -i black
n -t * -a 53 -s 53 -S UP -v circle -c black -i black
n -t * -a 54 -s 54 -S UP -v circle -c black -i black
n -t * -a 55 -s 55 -S UP -v circle -c black -i black
n -t * -a 56 -s 56 -S UP -v circle -c black -i black
n -t * -a 57 -s 57 -S UP -v circle -c black -i black
n -t * -a 58 -s 58 -S UP -v circle -c black -i black
n -t * -a 60 -s 60 -S UP -v circle -c black -i black
n -t * -a 59 -s 59 -S UP -v circle -c black -i black
n -t * -a 61 -s 61 -S UP -v circle -c black -i black
n -t * -a 62 -s 62 -S UP -v circle -c black -i black
n -t * -a 63 -s 63 -S UP -v circle -c black -i black
n -t * -a 64 -s 64 -S UP -v circle -c black -i black
n -t * -a 65 -s 65 -S UP -v circle -c black -i black
n -t * -a 66 -s 66 -S UP -v circle -c black -i black
n -t * -a 67 -s 67 -S UP -v circle -c black -i black
n -t * -a 68 -s 68 -S UP -v circle -c black -i black
n -t * -a 70 -s 70 -S UP -v circle -c black -i black
n -t * -a 69 -s 69 -S UP -v circle -c black -i black
n -t * -a 71 -s 71 -S UP -v circle -c black -i black
n -t * -a 100 -s 100 -S UP -v circle -c black -i black
n -t * -a 72 -s 72 -S UP -v circle -c black -i black
n -t * -a 101 -s 101 -S UP -v circle -c black -i black
n -t * -a 73 -s 73 -S UP -v circle -c black -i black
n -t * -a 102 -s 102 -S UP -v circle -c black -i black
n -t * -a 74 -s 74 -S UP -v circle -c black -i black
n -t * -a 103 -s 103 -S UP -v circle -c black -i black
n -t * -a 75 -s 75 -S UP -v circle -c black -i black
n -t * -a 76 -s 76 -S UP -v circle -c black -i black
n -t * -a 77 -s 77 -S UP -v circle -c black -i black
n -t * -a 78 -s 78 -S UP -v circle -c black -i black
n -t * -a 80 -s 80 -S UP -v circle -c black -i black
n -t * -a 79 -s 79 -S UP -v circle -c black -i black
n -t * -a 81 -s 81 -S UP -v circle -c black -i black
n -t * -a 10 -s 10 -S UP -v circle -c black -i black
n -t * -a 82 -s 82 -S UP -v circle -c black -i black
n -t * -a 11 -s 11 -S UP -v circle -c black -i black
n -t * -a 83 -s 83 -S UP -v circle -c black -i black
n -t * -a 12 -s 12 -S UP -v circle -c black -i black
n -t * -a 84 -s 84 -S UP -v circle -c black -i black
n -t * -a 13 -s 13 -S UP -v circle -c black -i black
n -t * -a 85 -s 85 -S UP -v circle -c black -i black
n -t * -a 14 -s 14 -S UP -v circle -c black -i black
n -t * -a 86 -s 86 -S UP -v circle -c black -i black
n -t * -a 15 -s 15 -S UP -v circle -c black -i black
n -t * -a 87 -s 87 -S UP -v circle -c black -i black
n -t * -a 16 -s 16 -S UP -v circle -c black -i black
n -t * -a 88 -s 88 -S UP -v circle -c black -i black
n -t * -a 0 -s 0 -S UP -v circle -c black -i black
n -t * -a 17 -s 17 -S UP -v circle -c black -i black
n -t * -a 90 -s 90 -S UP -v circle -c black -i black
n -t * -a 89 -s 89 -S UP -v circle -c black -i black
n -t * -a 1 -s 1 -S UP -v circle -c black -i black
n -t * -a 18 -s 18 -S UP -v circle -c black -i black
n -t * -a 91 -s 91 -S UP -v circle -c black -i black
n -t * -a 2 -s 2 -S UP -v circle -c black -i black
n -t * -a 19 -s 19 -S UP -v circle -c black -i black
n -t * -a 20 -s 20 -S UP -v circle -c black -i black
n -t * -a 92 -s 92 -S UP -v circle -c black -i black
n -t * -a 3 -s 3 -S UP -v circle -c black -i black
n -t * -a 21 -s 21 -S UP -v circle -c black -i black
n -t * -a 93 -s 93 -S UP -v circle -c black -i black
n -t * -a 4 -s 4 -S UP -v circle -c black -i black
n -t * -a 22 -s 22 -S UP -v circle -c black -i black
n -t * -a 94 -s 94 -S UP -v circle -c black -i black
n -t * -a 5 -s 5 -S UP -v circle -c black -i black
n -t * -a 23 -s 23 -S UP -v circle -c black -i black
n -t * -a 95 -s 95 -S UP -v circle -c black -i black
n -t * -a 6 -s 6 -S UP -v circle -c black -i black
n -t * -a 24 -s 24 -S UP -v circle -c black -i black
n -t * -a 96 -s 96 -S UP -v circle -c black -i black
n -t * -a 7 -s 7 -S UP -v circle -c black -i black
n -t * -a 25 -s 25 -S UP -v circle -c black -i black
n -t * -a 97 -s 97 -S UP -v circle -c black -i black
n -t * -a 8 -s 8 -S UP -v circle -c black -i black
n -t * -a 26 -s 26 -S UP -v circle -c black -i black
n -t * -a 98 -s 98 -S UP -v circle -c black -i black
n -t * -a 9 -s 9 -S UP -v circle -c black -i black
n -t * -a 27 -s 27 -S UP -v circle -c black -i black
n -t * -a 99 -s 99 -S UP -v circle -c black -i black
n -t * -a 28 -s 28 -S UP -v circle -c black -i black
n -t * -a 29 -s 29 -S UP -v circle -c black -i black
n -t * -a 30 -s 30 -S UP -v circle -c black -i black
n -t * -a 31 -s 31 -S UP -v circle -c black -i black
n -t * -a 32 -s 32 -S UP -v circle -c black -i black
n -t * -a 33 -s 33 -S UP -v circle -c black -i black
n -t * -a 34 -s 34 -S UP -v circle -c black -i black
l -t * -s 0 -d 1 -S UP -r 1000000 -D 0.01 -c black
l -t * -s 0 -d 2 -S UP -r 1000000 -D 0.01 -c black
l -t * -s 0 -d 3 -S UP -r 1000000 -D 0.01 -c black
l -t * -s 0 -d 4 -S UP -r 1000000 -D 0.01 -c black
l -t * -s 0 -d 5 -S UP -r 1000000 -D 0.01 -c black
l -t * -s 0 -d 6 -S UP -r 1000000 -D 0.01 -c black
l -t * -s 0 -d 7 -S UP -r 1000000 -D 0.01 -c black
l -t * -s 0 -d 8 -S UP -r 1000000 -D 0.01 -c black
l -t * -s 0 -d 9 -S UP -r 1000000 -D 0.01 -c black
l -t * -s 0 -d 10 -S UP -r 1000000 -D 0.01 -c black
l -t * -s 0 -d 11 -S UP -r 1000000 -D 0.01 -c black
l -t * -s 0 -d 12 -S UP -r 1000000 -D 0.01 -c black
l -t * -s 0 -d 13 -S UP -r 1000000 -D 0.01 -c black
l -t * -s 0 -d 14 -S UP -r 1000000 -D 0.01 -c black
l -t * -s 0 -d 15 -S UP -r 1000000 -D 0.01 -c black
l -t * -s 0 -d 16 -S UP -r 1000000 -D 0.01 -c black
l -t * -s 0 -d 17 -S UP -r 1000000 -D 0.01 -c black
l -t * -s 0 -d 18 -S UP -r 1000000 -D 0.01 -c black
l -t * -s 0 -d 19 -S UP -r 1000000 -D 0.01 -c black
l -t * -s 0 -d 20 -S UP -r 1000000 -D 0.01 -c black
l -t * -s 0 -d 21 -S UP -r 1000000 -D 0.01 -c black
l -t * -s 0 -d 22 -S UP -r 1000000 -D 0.01 -c black
l -t * -s 0 -d 23 -S UP -r 1000000 -D 0.01 -c black
l -t * -s 0 -d 24 -S UP -r 1000000 -D 0.01 -c black
l -t * -s 0 -d 25 -S UP -r 1000000 -D 0.01 -c black
l -t * -s 26 -d 27 -S UP -r 1000000 -D 0.01 -c black
l -t * -s 26 -d 28 -S UP -r 1000000 -D 0.01 -c black
l -t * -s 26 -d 29 -S UP -r 1000000 -D 0.01 -c black
l -t * -s 26 -d 30 -S UP -r 1000000 -D 0.01 -c black
l -t * -s 26 -d 31 -S UP -r 1000000 -D 0.01 -c black
l -t * -s 26 -d 32 -S UP -r 1000000 -D 0.01 -c black
l -t * -s 26 -d 33 -S UP -r 1000000 -D 0.01 -c black
l -t * -s 26 -d 34 -S UP -r 1000000 -D 0.01 -c black
l -t * -s 26 -d 35 -S UP -r 1000000 -D 0.01 -c black
l -t * -s 26 -d 36 -S UP -r 1000000 -D 0.01 -c black
l -t * -s 26 -d 37 -S UP -r 1000000 -D 0.01 -c black
l -t * -s 26 -d 38 -S UP -r 1000000 -D 0.01 -c black
l -t * -s 26 -d 39 -S UP -r 1000000 -D 0.01 -c black
l -t * -s 26 -d 40 -S UP -r 1000000 -D 0.01 -c black
l -t * -s 26 -d 41 -S UP -r 1000000 -D 0.01 -c black
l -t * -s 26 -d 42 -S UP -r 1000000 -D 0.01 -c black
l -t * -s 26 -d 43 -S UP -r 1000000 -D 0.01 -c black
l -t * -s 26 -d 44 -S UP -r 1000000 -D 0.01 -c black
l -t * -s 26 -d 45 -S UP -r 1000000 -D 0.01 -c black
l -t * -s 26 -d 46 -S UP -r 1000000 -D 0.01 -c black
l -t * -s 26 -d 47 -S UP -r 1000000 -D 0.01 -c black
l -t * -s 26 -d 48 -S UP -r 1000000 -D 0.01 -c black
l -t * -s 26 -d 49 -S UP -r 1000000 -D 0.01 -c black
l -t * -s 26 -d 50 -S UP -r 1000000 -D 0.01 -c black
l -t * -s 26 -d 51 -S UP -r 1000000 -D 0.01 -c black
l -t * -s 52 -d 53 -S UP -r 1000000 -D 0.01 -c black
l -t * -s 52 -d 54 -S UP -r 1000000 -D 0.01 -c black
l -t * -s 52 -d 55 -S UP -r 1000000 -D 0.01 -c black
l -t * -s 52 -d 56 -S UP -r 1000000 -D 0.01 -c black
l -t * -s 52 -d 57 -S UP -r 1000000 -D 0.01 -c black
l -t * -s 52 -d 58 -S UP -r 1000000 -D 0.01 -c black
l -t * -s 52 -d 59 -S UP -r 1000000 -D 0.01 -c black
l -t * -s 52 -d 60 -S UP -r 1000000 -D 0.01 -c black
l -t * -s 52 -d 61 -S UP -r 1000000 -D 0.01 -c black
l -t * -s 52 -d 62 -S UP -r 1000000 -D 0.01 -c black
l -t * -s 52 -d 63 -S UP -r 1000000 -D 0.01 -c black
l -t * -s 52 -d 64 -S UP -r 1000000 -D 0.01 -c black
l -t * -s 52 -d 65 -S UP -r 1000000 -D 0.01 -c black
l -t * -s 52 -d 66 -S UP -r 1000000 -D 0.01 -c black
l -t * -s 52 -d 67 -S UP -r 1000000 -D 0.01 -c black
l -t * -s 52 -d 68 -S UP -r 1000000 -D 0.01 -c black
l -t * -s 52 -d 69 -S UP -r 1000000 -D 0.01 -c black
l -t * -s 52 -d 70 -S UP -r 1000000 -D 0.01 -c black
l -t * -s 52 -d 71 -S UP -r 1000000 -D 0.01 -c black
l -t * -s 52 -d 72 -S UP -r 1000000 -D 0.01 -c black
l -t * -s 52 -d 73 -S UP -r 1000000 -D 0.01 -c black
l -t * -s 52 -d 74 -S UP -r 1000000 -D 0.01 -c black
l -t * -s 52 -d 75 -S UP -r 1000000 -D 0.01 -c black
l -t * -s 52 -d 76 -S UP -r 1000000 -D 0.01 -c black
l -t * -s 52 -d 77 -S UP -r 1000000 -D 0.01 -c black
l -t * -s 78 -d 79 -S UP -r 1000000 -D 0.01 -c black
l -t * -s 78 -d 80 -S UP -r 1000000 -D 0.01 -c black
l -t * -s 78 -d 81 -S UP -r 1000000 -D 0.01 -c black
l -t * -s 78 -d 82 -S UP -r 1000000 -D 0.01 -c black
l -t * -s 78 -d 83 -S UP -r 1000000 -D 0.01 -c black
l -t * -s 78 -d 84 -S UP -r 1000000 -D 0.01 -c black
l -t * -s 78 -d 85 -S UP -r 1000000 -D 0.01 -c black
l -t * -s 78 -d 86 -S UP -r 1000000 -D 0.01 -c black
l -t * -s 78 -d 87 -S UP -r 1000000 -D 0.01 -c black
l -t * -s 78 -d 88 -S UP -r 1000000 -D 0.01 -c black
l -t * -s 78 -d 89 -S UP -r 1000000 -D 0.01 -c black
l -t * -s 78 -d 90 -S UP -r 1000000 -D 0.01 -c black
l -t * -s 78 -d 91 -S UP -r 1000000 -D 0.01 -c black
l -t * -s 78 -d 92 -S UP -r 1000000 -D 0.01 -c black
l -t * -s 78 -d 93 -S UP -r 1000000 -D 0.01 -c black
l -t * -s 78 -d 94 -S UP -r 1000000 -D 0.01 -c black
l -t * -s 78 -d 95 -S UP -r 1000000 -D 0.01 -c black
l -t * -s 78 -d 96 -S UP -r 1000000 -D 0.01 -c black
l -t * -s 78 -d 97 -S UP -r 1000000 -D 0.01 -c black
l -t * -s 78 -d 98 -S UP -r 1000000 -D 0.01 -c black
l -t * -s 78 -d 99 -S UP -r 1000000 -D 0.01 -c black
l -t * -s 78 -d 100 -S UP -r 1000000 -D 0.01 -c black
l -t * -s 78 -d 101 -S UP -r 1000000 -D 0.01 -c black
l -t * -s 78 -d 102 -S UP -r 1000000 -D 0.01 -c black
l -t * -s 78 -d 103 -S UP -r 1000000 -D 0.01 -c black
l -t * -s 0 -d 26 -S UP -r 1000000 -D 0.01 -c black
l -t * -s 0 -d 52 -S UP -r 1000000 -D 0.01 -c black
l -t * -s 0 -d 78 -S UP -r 1000000 -D 0.01 -c black
l -t * -s 26 -d 52 -S UP -r 1000000 -D 0.01 -c black
l -t * -s 26 -d 78 -S UP -r 1000000 -D 0.01 -c black
l -t * -s 52 -d 78 -S UP -r 1000000 -D 0.01 -c black
+ -t 8.72693490643377e-05 -s 90 -d 78 -p rtProtoLS -e 100 -c 0 -i 0 -a 0 -x {90.2 78.2 -1 ------- null}
- -t 8.72693490643377e-05 -s 90 -d 78 -p rtProtoLS -e 100 -c 0 -i 0 -a 0 -x {90.2 78.2 -1 ------- null}
h -t 8.72693490643377e-05 -s 90 -d 78 -p rtProtoLS -e 100 -c 0 -i 0 -a 0 -x {90.2 78.2 -1 ------- null}
+ -t 0.000169788487334637 -s 0 -d 1 -p rtProtoLS -e 100 -c 0 -i 1 -a 0 -x {0.2 1.2 -1 ------- null}
- -t 0.000169788487334637 -s 0 -d 1 -p rtProtoLS -e 100 -c 0 -i 1 -a 0 -x {0.2 1.2 -1 ------- null}
h -t 0.000169788487334637 -s 0 -d 1 -p rtProtoLS -e 100 -c 0 -i 1 -a 0 -x {0.2 1.2 -1 ------- null}
+ -t 0.000169788487334637 -s 0 -d 2 -p rtProtoLS -e 100 -c 0 -i 2 -a 0 -x {0.2 2.2 -1 ------- null}
- -t 0.000169788487334637 -s 0 -d 2 -p rtProtoLS -e 100 -c 0 -i 2 -a 0 -x {0.2 2.2 -1 ------- null}
h -t 0.000169788487334637 -s 0 -d 2 -p rtProtoLS -e 100 -c 0 -i 2 -a 0 -x {0.2 2.2 -1 ------- null}
+ -t 0.000169788487334637 -s 0 -d 3 -p rtProtoLS -e 100 -c 0 -i 3 -a 0 -x {0.2 3.2 -1 ------- null}
- -t 0.000169788487334637 -s 0 -d 3 -p rtProtoLS -e 100 -c 0 -i 3 -a 0 -x {0.2 3.2 -1 ------- null}
h -t 0.000169788487334637 -s 0 -d 3 -p rtProtoLS -e 100 -c 0 -i 3 -a 0 -x {0.2 3.2 -1 ------- null}
+ -t 0.000169788487334637 -s 0 -d 4 -p rtProtoLS -e 100 -c 0 -i 4 -a 0 -x {0.2 4.2 -1 ------- null}
- -t 0.000169788487334637 -s 0 -d 4 -p rtProtoLS -e 100 -c 0 -i 4 -a 0 -x {0.2 4.2 -1 ------- null}
h -t 0.000169788487334637 -s 0 -d 4 -p rtProtoLS -e 100 -c 0 -i 4 -a 0 -x {0.2 4.2 -1 ------- null}
+ -t 0.000169788487334637 -s 0 -d 5 -p rtProtoLS -e 100 -c 0 -i 5 -a 0 -x {0.2 5.2 -1 ------- null}
- -t 0.000169788487334637 -s 0 -d 5 -p rtProtoLS -e 100 -c 0 -i 5 -a 0 -x {0.2 5.2 -1 ------- null}
h -t 0.000169788487334637 -s 0 -d 5 -p rtProtoLS -e 100 -c 0 -i 5 -a 0 -x {0.2 5.2 -1 ------- null}
+ -t 0.000169788487334637 -s 0 -d 6 -p rtProtoLS -e 100 -c 0 -i 6 -a 0 -x {0.2 6.2 -1 ------- null}
- -t 0.000169788487334637 -s 0 -d 6 -p rtProtoLS -e 100 -c 0 -i 6 -a 0 -x {0.2 6.2 -1 ------- null}
h -t 0.000169788487334637 -s 0 -d 6 -p rtProtoLS -e 100 -c 0 -i 6 -a 0 -x {0.2 6.2 -1 ------- null}
+ -t 0.000169788487334637 -s 0 -d 7 -p rtProtoLS -e 100 -c 0 -i 7 -a 0 -x {0.2 7.2 -1 ------- null}
- -t 0.000169788487334637 -s 0 -d 7 -p rtProtoLS -e 100 -c 0 -i 7 -a 0 -x {0.2 7.2 -1 ------- null}
h -t 0.000169788487334637 -s 0 -d 7 -p rtProtoLS -e 100 -c 0 -i 7 -a 0 -x {0.2 7.2 -1 ------- null}
+ -t 0.000169788487334637 -s 0 -d 8 -p rtProtoLS -e 100 -c 0 -i 8 -a 0 -x {0.2 8.2 -1 ------- null}
- -t 0.000169788487334637 -s 0 -d 8 -p rtProtoLS -e 100 -c 0 -i 8 -a 0 -x {0.2 8.2 -1 ------- null}
h -t 0.000169788487334637 -s 0 -d 8 -p rtProtoLS -e 100 -c 0 -i 8 -a 0 -x {0.2 8.2 -1 ------- null}
+ -t 0.000169788487334637 -s 0 -d 9 -p rtProtoLS -e 100 -c 0 -i 9 -a 0 -x {0.2 9.2 -1 ------- null}
- -t 0.000169788487334637 -s 0 -d 9 -p rtProtoLS -e 100 -c 0 -i 9 -a 0 -x {0.2 9.2 -1 ------- null}
h -t 0.000169788487334637 -s 0 -d 9 -p rtProtoLS -e 100 -c 0 -i 9 -a 0 -x {0.2 9.2 -1 ------- null}
+ -t 0.000169788487334637 -s 0 -d 10 -p rtProtoLS -e 100 -c 0 -i 10 -a 0 -x {0.2 10.2 -1 ------- null}
- -t 0.000169788487334637 -s 0 -d 10 -p rtProtoLS -e 100 -c 0 -i 10 -a 0 -x {0.2 10.2 -1 ------- null}
h -t 0.000169788487334637 -s 0 -d 10 -p rtProtoLS -e 100 -c 0 -i 10 -a 0 -x {0.2 10.2 -1 ------- null}
+ -t 0.000169788487334637 -s 0 -d 11 -p rtProtoLS -e 100 -c 0 -i 11 -a 0 -x {0.2 11.2 -1 ------- null}
- -t 0.000169788487334637 -s 0 -d 11 -p rtProtoLS -e 100 -c 0 -i 11 -a 0 -x {0.2 11.2 -1 ------- null}
h -t 0.000169788487334637 -s 0 -d 11 -p rtProtoLS -e 100 -c 0 -i 11 -a 0 -x {0.2 11.2 -1 ------- null}
+ -t 0.000169788487334637 -s 0 -d 12 -p rtProtoLS -e 100 -c 0 -i 12 -a 0 -x {0.2 12.2 -1 ------- null}
- -t 0.000169788487334637 -s 0 -d 12 -p rtProtoLS -e 100 -c 0 -i 12 -a 0 -x {0.2 12.2 -1 ------- null}
h -t 0.000169788487334637 -s 0 -d 12 -p rtProtoLS -e 100 -c 0 -i 12 -a 0 -x {0.2 12.2 -1 ------- null}
+ -t 0.000169788487334637 -s 0 -d 13 -p rtProtoLS -e 100 -c 0 -i 13 -a 0 -x {0.2 13.2 -1 ------- null}
- -t 0.000169788487334637 -s 0 -d 13 -p rtProtoLS -e 100 -c 0 -i 13 -a 0 -x {0.2 13.2 -1 ------- null}
h -t 0.000169788487334637 -s 0 -d 13 -p rtProtoLS -e 100 -c 0 -i 13 -a 0 -x {0.2 13.2 -1 ------- null}
+ -t 0.000169788487334637 -s 0 -d 14 -p rtProtoLS -e 100 -c 0 -i 14 -a 0 -x {0.2 14.2 -1 ------- null}
- -t 0.000169788487334637 -s 0 -d 14 -p rtProtoLS -e 100 -c 0 -i 14 -a 0 -x {0.2 14.2 -1 ------- null}
h -t 0.000169788487334637 -s 0 -d 14 -p rtProtoLS -e 100 -c 0 -i 14 -a 0 -x {0.2 14.2 -1 ------- null}
+ -t 0.000169788487334637 -s 0 -d 15 -p rtProtoLS -e 100 -c 0 -i 15 -a 0 -x {0.2 15.2 -1 ------- null}
- -t 0.000169788487334637 -s 0 -d 15 -p rtProtoLS -e 100 -c 0 -i 15 -a 0 -x {0.2 15.2 -1 ------- null}
h -t 0.000169788487334637 -s 0 -d 15 -p rtProtoLS -e 100 -c 0 -i 15 -a 0 -x {0.2 15.2 -1 ------- null}
+ -t 0.000169788487334637 -s 0 -d 16 -p rtProtoLS -e 100 -c 0 -i 16 -a 0 -x {0.2 16.2 -1 ------- null}
- -t 0.000169788487334637 -s 0 -d 16 -p rtProtoLS -e 100 -c 0 -i 16 -a 0 -x {0.2 16.2 -1 ------- null}
h -t 0.000169788487334637 -s 0 -d 16 -p rtProtoLS -e 100 -c 0 -i 16 -a 0 -x {0.2 16.2 -1 ------- null}
+ -t 0.000169788487334637 -s 0 -d 17 -p rtProtoLS -e 100 -c 0 -i 17 -a 0 -x {0.2 17.2 -1 ------- null}
- -t 0.000169788487334637 -s 0 -d 17 -p rtProtoLS -e 100 -c 0 -i 17 -a 0 -x {0.2 17.2 -1 ------- null}
h -t 0.000169788487334637 -s 0 -d 17 -p rtProtoLS -e 100 -c 0 -i 17 -a 0 -x {0.2 17.2 -1 ------- null}
+ -t 0.000169788487334637 -s 0 -d 18 -p rtProtoLS -e 100 -c 0 -i 18 -a 0 -x {0.2 18.2 -1 ------- null}
- -t 0.000169788487334637 -s 0 -d 18 -p rtProtoLS -e 100 -c 0 -i 18 -a 0 -x {0.2 18.2 -1 ------- null}
h -t 0.000169788487334637 -s 0 -d 18 -p rtProtoLS -e 100 -c 0 -i 18 -a 0 -x {0.2 18.2 -1 ------- null}
+ -t 0.000169788487334637 -s 0 -d 19 -p rtProtoLS -e 100 -c 0 -i 19 -a 0 -x {0.2 19.2 -1 ------- null}
- -t 0.000169788487334637 -s 0 -d 19 -p rtProtoLS -e 100 -c 0 -i 19 -a 0 -x {0.2 19.2 -1 ------- null}
h -t 0.000169788487334637 -s 0 -d 19 -p rtProtoLS -e 100 -c 0 -i 19 -a 0 -x {0.2 19.2 -1 ------- null}
+ -t 0.000169788487334637 -s 0 -d 20 -p rtProtoLS -e 100 -c 0 -i 20 -a 0 -x {0.2 20.2 -1 ------- null}
- -t 0.000169788487334637 -s 0 -d 20 -p rtProtoLS -e 100 -c 0 -i 20 -a 0 -x {0.2 20.2 -1 ------- null}
h -t 0.000169788487334637 -s 0 -d 20 -p rtProtoLS -e 100 -c 0 -i 20 -a 0 -x {0.2 20.2 -1 ------- null}
+ -t 0.000169788487334637 -s 0 -d 21 -p rtProtoLS -e 100 -c 0 -i 21 -a 0 -x {0.2 21.2 -1 ------- null}
- -t 0.000169788487334637 -s 0 -d 21 -p rtProtoLS -e 100 -c 0 -i 21 -a 0 -x {0.2 21.2 -1 ------- null}
h -t 0.000169788487334637 -s 0 -d 21 -p rtProtoLS -e 100 -c 0 -i 21 -a 0 -x {0.2 21.2 -1 ------- null}
+ -t 0.000169788487334637 -s 0 -d 22 -p rtProtoLS -e 100 -c 0 -i 22 -a 0 -x {0.2 22.2 -1 ------- null}
- -t 0.000169788487334637 -s 0 -d 22 -p rtProtoLS -e 100 -c 0 -i 22 -a 0 -x {0.2 22.2 -1 ------- null}
h -t 0.000169788487334637 -s 0 -d 22 -p rtProtoLS -e 100 -c 0 -i 22 -a 0 -x {0.2 22.2 -1 ------- null}
+ -t 0.000169788487334637 -s 0 -d 23 -p rtProtoLS -e 100 -c 0 -i 23 -a 0 -x {0.2 23.2 -1 ------- null}
- -t 0.000169788487334637 -s 0 -d 23 -p rtProtoLS -e 100 -c 0 -i 23 -a 0 -x {0.2 23.2 -1 ------- null}
h -t 0.000169788487334637 -s 0 -d 23 -p rtProtoLS -e 100 -c 0 -i 23 -a 0 -x {0.2 23.2 -1 ------- null}
+ -t 0.000169788487334637 -s 0 -d 24 -p rtProtoLS -e 100 -c 0 -i 24 -a 0 -x {0.2 24.2 -1 ------- null}
- -t 0.000169788487334637 -s 0 -d 24 -p rtProtoLS -e 100 -c 0 -i 24 -a 0 -x {0.2 24.2 -1 ------- null}
h -t 0.000169788487334637 -s 0 -d 24 -p rtProtoLS -e 100 -c 0 -i 24 -a 0 -x {0.2 24.2 -1 ------- null}
+ -t 0.000169788487334637 -s 0 -d 25 -p rtProtoLS -e 100 -c 0 -i 25 -a 0 -x {0.2 25.2 -1 ------- null}
- -t 0.000169788487334637 -s 0 -d 25 -p rtProtoLS -e 100 -c 0 -i 25 -a 0 -x {0.2 25.2 -1 ------- null}
h -t 0.000169788487334637 -s 0 -d 25 -p rtProtoLS -e 100 -c 0 -i 25 -a 0 -x {0.2 25.2 -1 ------- null}
+ -t 0.000169788487334637 -s 0 -d 26 -p rtProtoLS -e 100 -c 0 -i 26 -a 0 -x {0.2 26.2 -1 ------- null}
- -t 0.000169788487334637 -s 0 -d 26 -p rtProtoLS -e 100 -c 0 -i 26 -a 0 -x {0.2 26.2 -1 ------- null}
h -t 0.000169788487334637 -s 0 -d 26 -p rtProtoLS -e 100 -c 0 -i 26 -a 0 -x {0.2 26.2 -1 ------- null}
+ -t 0.000169788487334637 -s 0 -d 52 -p rtProtoLS -e 100 -c 0 -i 27 -a 0 -x {0.2 52.2 -1 ------- null}
- -t 0.000169788487334637 -s 0 -d 52 -p rtProtoLS -e 100 -c 0 -i 27 -a 0 -x {0.2 52.2 -1 ------- null}
h -t 0.000169788487334637 -s 0 -d 52 -p rtProtoLS -e 100 -c 0 -i 27 -a 0 -x {0.2 52.2 -1 ------- null}
+ -t 0.000169788487334637 -s 0 -d 78 -p rtProtoLS -e 100 -c 0 -i 28 -a 0 -x {0.2 78.2 -1 ------- null}
- -t 0.000169788487334637 -s 0 -d 78 -p rtProtoLS -e 100 -c 0 -i 28 -a 0 -x {0.2 78.2 -1 ------- null}
h -t 0.000169788487334637 -s 0 -d 78 -p rtProtoLS -e 100 -c 0 -i 28 -a 0 -x {0.2 78.2 -1 ------- null}
+ -t 0.00167513405982178 -s 98 -d 78 -p rtProtoLS -e 100 -c 0 -i 29 -a 0 -x {98.2 78.2 -1 ------- null}
- -t 0.00167513405982178 -s 98 -d 78 -p rtProtoLS -e 100 -c 0 -i 29 -a 0 -x {98.2 78.2 -1 ------- null}
h -t 0.00167513405982178 -s 98 -d 78 -p rtProtoLS -e 100 -c 0 -i 29 -a 0 -x {98.2 78.2 -1 ------- null}
+ -t 0.00540416897526205 -s 44 -d 26 -p rtProtoLS -e 100 -c 0 -i 30 -a 0 -x {44.2 26.2 -1 ------- null}
- -t 0.00540416897526205 -s 44 -d 26 -p rtProtoLS -e 100 -c 0 -i 30 -a 0 -x {44.2 26.2 -1 ------- null}
h -t 0.00540416897526205 -s 44 -d 26 -p rtProtoLS -e 100 -c 0 -i 30 -a 0 -x {44.2 26.2 -1 ------- null}
+ -t 0.00710233021858257 -s 2 -d 0 -p rtProtoLS -e 100 -c 0 -i 31 -a 0 -x {2.2 0.2 -1 ------- null}
- -t 0.00710233021858257 -s 2 -d 0 -p rtProtoLS -e 100 -c 0 -i 31 -a 0 -x {2.2 0.2 -1 ------- null}
h -t 0.00710233021858257 -s 2 -d 0 -p rtProtoLS -e 100 -c 0 -i 31 -a 0 -x {2.2 0.2 -1 ------- null}
r -t 0.0108872693490643 -s 90 -d 78 -p rtProtoLS -e 100 -c 0 -i 0 -a 0 -x {90.2 78.2 -1 ------- null}
+ -t 0.0108872693490643 -s 78 -d 90 -p rtProtoLS -e 20 -c 0 -i 32 -a 0 -x {78.2 90.2 -1 ------- null}
- -t 0.0108872693490643 -s 78 -d 90 -p rtProtoLS -e 20 -c 0 -i 32 -a 0 -x {78.2 90.2 -1 ------- null}
h -t 0.0108872693490643 -s 78 -d 90 -p rtProtoLS -e 20 -c 0 -i 32 -a 0 -x {78.2 90.2 -1 ------- null}
+ -t 0.0108872693490643 -s 78 -d 0 -p rtProtoLS -e 100 -c 0 -i 33 -a 0 -x {78.2 0.2 -1 ------- null}
- -t 0.0108872693490643 -s 78 -d 0 -p rtProtoLS -e 100 -c 0 -i 33 -a 0 -x {78.2 0.2 -1 ------- null}
h -t 0.0108872693490643 -s 78 -d 0 -p rtProtoLS -e 100 -c 0 -i 33 -a 0 -x {78.2 0.2 -1 ------- null}
+ -t 0.0108872693490643 -s 78 -d 26 -p rtProtoLS -e 100 -c 0 -i 34 -a 0 -x {78.2 26.2 -1 ------- null}
- -t 0.0108872693490643 -s 78 -d 26 -p rtProtoLS -e 100 -c 0 -i 34 -a 0 -x {78.2 26.2 -1 ------- null}
h -t 0.0108872693490643 -s 78 -d 26 -p rtProtoLS -e 100 -c 0 -i 34 -a 0 -x {78.2 26.2 -1 ------- null}
+ -t 0.0108872693490643 -s 78 -d 52 -p rtProtoLS -e 100 -c 0 -i 35 -a 0 -x {78.2 52.2 -1 ------- null}
- -t 0.0108872693490643 -s 78 -d 52 -p rtProtoLS -e 100 -c 0 -i 35 -a 0 -x {78.2 52.2 -1 ------- null}
h -t 0.0108872693490643 -s 78 -d 52 -p rtProtoLS -e 100 -c 0 -i 35 -a 0 -x {78.2 52.2 -1 ------- null}
+ -t 0.0108872693490643 -s 78 -d 79 -p rtProtoLS -e 100 -c 0 -i 36 -a 0 -x {78.2 79.2 -1 ------- null}
- -t 0.0108872693490643 -s 78 -d 79 -p rtProtoLS -e 100 -c 0 -i 36 -a 0 -x {78.2 79.2 -1 ------- null}
h -t 0.0108872693490643 -s 78 -d 79 -p rtProtoLS -e 100 -c 0 -i 36 -a 0 -x {78.2 79.2 -1 ------- null}
+ -t 0.0108872693490643 -s 78 -d 80 -p rtProtoLS -e 100 -c 0 -i 37 -a 0 -x {78.2 80.2 -1 ------- null}
- -t 0.0108872693490643 -s 78 -d 80 -p rtProtoLS -e 100 -c 0 -i 37 -a 0 -x {78.2 80.2 -1 ------- null}
h -t 0.0108872693490643 -s 78 -d 80 -p rtProtoLS -e 100 -c 0 -i 37 -a 0 -x {78.2 80.2 -1 ------- null}
+ -t 0.0108872693490643 -s 78 -d 81 -p rtProtoLS -e 100 -c 0 -i 38 -a 0 -x {78.2 81.2 -1 ------- null}
- -t 0.0108872693490643 -s 78 -d 81 -p rtProtoLS -e 100 -c 0 -i 38 -a 0 -x {78.2 81.2 -1 ------- null}
h -t 0.0108872693490643 -s 78 -d 81 -p rtProtoLS -e 100 -c 0 -i 38 -a 0 -x {78.2 81.2 -1 ------- null}
+ -t 0.0108872693490643 -s 78 -d 82 -p rtProtoLS -e 100 -c 0 -i 39 -a 0 -x {78.2 82.2 -1 ------- null}
- -t 0.0108872693490643 -s 78 -d 82 -p rtProtoLS -e 100 -c 0 -i 39 -a 0 -x {78.2 82.2 -1 ------- null}
h -t 0.0108872693490643 -s 78 -d 82 -p rtProtoLS -e 100 -c 0 -i 39 -a 0 -x {78.2 82.2 -1 ------- null}
+ -t 0.0108872693490643 -s 78 -d 83 -p rtProtoLS -e 100 -c 0 -i 40 -a 0 -x {78.2 83.2 -1 ------- null}
- -t 0.0108872693490643 -s 78 -d 83 -p rtProtoLS -e 100 -c 0 -i 40 -a 0 -x {78.2 83.2 -1 ------- null}
h -t 0.0108872693490643 -s 78 -d 83 -p rtProtoLS -e 100 -c 0 -i 40 -a 0 -x {78.2 83.2 -1 ------- null}
+ -t 0.0108872693490643 -s 78 -d 84 -p rtProtoLS -e 100 -c 0 -i 41 -a 0 -x {78.2 84.2 -1 ------- null}
- -t 0.0108872693490643 -s 78 -d 84 -p rtProtoLS -e 100 -c 0 -i 41 -a 0 -x {78.2 84.2 -1 ------- null}
h -t 0.0108872693490643 -s 78 -d 84 -p rtProtoLS -e 100 -c 0 -i 41 -a 0 -x {78.2 84.2 -1 ------- null}
+ -t 0.0108872693490643 -s 78 -d 85 -p rtProtoLS -e 100 -c 0 -i 42 -a 0 -x {78.2 85.2 -1 ------- null}
- -t 0.0108872693490643 -s 78 -d 85 -p rtProtoLS -e 100 -c 0 -i 42 -a 0 -x {78.2 85.2 -1 ------- null}
h -t 0.0108872693490643 -s 78 -d 85 -p rtProtoLS -e 100 -c 0 -i 42 -a 0 -x {78.2 85.2 -1 ------- null}
+ -t 0.0108872693490643 -s 78 -d 86 -p rtProtoLS -e 100 -c 0 -i 43 -a 0 -x {78.2 86.2 -1 ------- null}
- -t 0.0108872693490643 -s 78 -d 86 -p rtProtoLS -e 100 -c 0 -i 43 -a 0 -x {78.2 86.2 -1 ------- null}
h -t 0.0108872693490643 -s 78 -d 86 -p rtProtoLS -e 100 -c 0 -i 43 -a 0 -x {78.2 86.2 -1 ------- null}
+ -t 0.0108872693490643 -s 78 -d 87 -p rtProtoLS -e 100 -c 0 -i 44 -a 0 -x {78.2 87.2 -1 ------- null}
- -t 0.0108872693490643 -s 78 -d 87 -p rtProtoLS -e 100 -c 0 -i 44 -a 0 -x {78.2 87.2 -1 ------- null}
h -t 0.0108872693490643 -s 78 -d 87 -p rtProtoLS -e 100 -c 0 -i 44 -a 0 -x {78.2 87.2 -1 ------- null}
+ -t 0.0108872693490643 -s 78 -d 88 -p rtProtoLS -e 100 -c 0 -i 45 -a 0 -x {78.2 88.2 -1 ------- null}
- -t 0.0108872693490643 -s 78 -d 88 -p rtProtoLS -e 100 -c 0 -i 45 -a 0 -x {78.2 88.2 -1 ------- null}
h -t 0.0108872693490643 -s 78 -d 88 -p rtProtoLS -e 100 -c 0 -i 45 -a 0 -x {78.2 88.2 -1 ------- null}
+ -t 0.0108872693490643 -s 78 -d 89 -p rtProtoLS -e 100 -c 0 -i 46 -a 0 -x {78.2 89.2 -1 ------- null}
- -t 0.0108872693490643 -s 78 -d 89 -p rtProtoLS -e 100 -c 0 -i 46 -a 0 -x {78.2 89.2 -1 ------- null}
h -t 0.0108872693490643 -s 78 -d 89 -p rtProtoLS -e 100 -c 0 -i 46 -a 0 -x {78.2 89.2 -1 ------- null}
+ -t 0.0108872693490643 -s 78 -d 91 -p rtProtoLS -e 100 -c 0 -i 47 -a 0 -x {78.2 91.2 -1 ------- null}
- -t 0.0108872693490643 -s 78 -d 91 -p rtProtoLS -e 100 -c 0 -i 47 -a 0 -x {78.2 91.2 -1 ------- null}
h -t 0.0108872693490643 -s 78 -d 91 -p rtProtoLS -e 100 -c 0 -i 47 -a 0 -x {78.2 91.2 -1 ------- null}
+ -t 0.0108872693490643 -s 78 -d 92 -p rtProtoLS -e 100 -c 0 -i 48 -a 0 -x {78.2 92.2 -1 ------- null}
- -t 0.0108872693490643 -s 78 -d 92 -p rtProtoLS -e 100 -c 0 -i 48 -a 0 -x {78.2 92.2 -1 ------- null}
h -t 0.0108872693490643 -s 78 -d 92 -p rtProtoLS -e 100 -c 0 -i 48 -a 0 -x {78.2 92.2 -1 ------- null}
+ -t 0.0108872693490643 -s 78 -d 93 -p rtProtoLS -e 100 -c 0 -i 49 -a 0 -x {78.2 93.2 -1 ------- null}
- -t 0.0108872693490643 -s 78 -d 93 -p rtProtoLS -e 100 -c 0 -i 49 -a 0 -x {78.2 93.2 -1 ------- null}
h -t 0.0108872693490643 -s 78 -d 93 -p rtProtoLS -e 100 -c 0 -i 49 -a 0 -x {78.2 93.2 -1 ------- null}
+ -t 0.0108872693490643 -s 78 -d 94 -p rtProtoLS -e 100 -c 0 -i 50 -a 0 -x {78.2 94.2 -1 ------- null}
- -t 0.0108872693490643 -s 78 -d 94 -p rtProtoLS -e 100 -c 0 -i 50 -a 0 -x {78.2 94.2 -1 ------- null}
h -t 0.0108872693490643 -s 78 -d 94 -p rtProtoLS -e 100 -c 0 -i 50 -a 0 -x {78.2 94.2 -1 ------- null}
+ -t 0.0108872693490643 -s 78 -d 95 -p rtProtoLS -e 100 -c 0 -i 51 -a 0 -x {78.2 95.2 -1 ------- null}
- -t 0.0108872693490643 -s 78 -d 95 -p rtProtoLS -e 100 -c 0 -i 51 -a 0 -x {78.2 95.2 -1 ------- null}
h -t 0.0108872693490643 -s 78 -d 95 -p rtProtoLS -e 100 -c 0 -i 51 -a 0 -x {78.2 95.2 -1 ------- null}
+ -t 0.0108872693490643 -s 78 -d 96 -p rtProtoLS -e 100 -c 0 -i 52 -a 0 -x {78.2 96.2 -1 ------- null}
- -t 0.0108872693490643 -s 78 -d 96 -p rtProtoLS -e 100 -c 0 -i 52 -a 0 -x {78.2 96.2 -1 ------- null}
h -t 0.0108872693490643 -s 78 -d 96 -p rtProtoLS -e 100 -c 0 -i 52 -a 0 -x {78.2 96.2 -1 ------- null}
+ -t 0.0108872693490643 -s 78 -d 97 -p rtProtoLS -e 100 -c 0 -i 53 -a 0 -x {78.2 97.2 -1 ------- null}
- -t 0.0108872693490643 -s 78 -d 97 -p rtProtoLS -e 100 -c 0 -i 53 -a 0 -x {78.2 97.2 -1 ------- null}
h -t 0.0108872693490643 -s 78 -d 97 -p rtProtoLS -e 100 -c 0 -i 53 -a 0 -x {78.2 97.2 -1 ------- null}
+ -t 0.0108872693490643 -s 78 -d 98 -p rtProtoLS -e 100 -c 0 -i 54 -a 0 -x {78.2 98.2 -1 ------- null}
- -t 0.0108872693490643 -s 78 -d 98 -p rtProtoLS -e 100 -c 0 -i 54 -a 0 -x {78.2 98.2 -1 ------- null}
h -t 0.0108872693490643 -s 78 -d 98 -p rtProtoLS -e 100 -c 0 -i 54 -a 0 -x {78.2 98.2 -1 ------- null}
+ -t 0.0108872693490643 -s 78 -d 99 -p rtProtoLS -e 100 -c 0 -i 55 -a 0 -x {78.2 99.2 -1 ------- null}
- -t 0.0108872693490643 -s 78 -d 99 -p rtProtoLS -e 100 -c 0 -i 55 -a 0 -x {78.2 99.2 -1 ------- null}
h -t 0.0108872693490643 -s 78 -d 99 -p rtProtoLS -e 100 -c 0 -i 55 -a 0 -x {78.2 99.2 -1 ------- null}
+ -t 0.0108872693490643 -s 78 -d 100 -p rtProtoLS -e 100 -c 0 -i 56 -a 0 -x {78.2 100.2 -1 ------- null}
- -t 0.0108872693490643 -s 78 -d 100 -p rtProtoLS -e 100 -c 0 -i 56 -a 0 -x {78.2 100.2 -1 ------- null}
h -t 0.0108872693490643 -s 78 -d 100 -p rtProtoLS -e 100 -c 0 -i 56 -a 0 -x {78.2 100.2 -1 ------- null}
+ -t 0.0108872693490643 -s 78 -d 101 -p rtProtoLS -e 100 -c 0 -i 57 -a 0 -x {78.2 101.2 -1 ------- null}
- -t 0.0108872693490643 -s 78 -d 101 -p rtProtoLS -e 100 -c 0 -i 57 -a 0 -x {78.2 101.2 -1 ------- null}
h -t 0.0108872693490643 -s 78 -d 101 -p rtProtoLS -e 100 -c 0 -i 57 -a 0 -x {78.2 101.2 -1 ------- null}
+ -t 0.0108872693490643 -s 78 -d 102 -p rtProtoLS -e 100 -c 0 -i 58 -a 0 -x {78.2 102.2 -1 ------- null}
- -t 0.0108872693490643 -s 78 -d 102 -p rtProtoLS -e 100 -c 0 -i 58 -a 0 -x {78.2 102.2 -1 ------- null}
h -t 0.0108872693490643 -s 78 -d 102 -p rtProtoLS -e 100 -c 0 -i 58 -a 0 -x {78.2 102.2 -1 ------- null}
+ -t 0.0108872693490643 -s 78 -d 103 -p rtProtoLS -e 100 -c 0 -i 59 -a 0 -x {78.2 103.2 -1 ------- null}
- -t 0.0108872693490643 -s 78 -d 103 -p rtProtoLS -e 100 -c 0 -i 59 -a 0 -x {78.2 103.2 -1 ------- null}
h -t 0.0108872693490643 -s 78 -d 103 -p rtProtoLS -e 100 -c 0 -i 59 -a 0 -x {78.2 103.2 -1 ------- null}
r -t 0.0109697884873346 -s 0 -d 1 -p rtProtoLS -e 100 -c 0 -i 1 -a 0 -x {0.2 1.2 -1 ------- null}
+ -t 0.0109697884873346 -s 1 -d 0 -p rtProtoLS -e 20 -c 0 -i 60 -a 0 -x {1.2 0.2 -1 ------- null}