V -t * -v 1.0a5 -a 0
A -t * -n 1 -p 0 -o 0x7fffffff -c 30 -a 1
A -t * -h 1 -m 1073741823 -s 0
c -t * -i 1 -n Blue
c -t * -i 2 -n Red
n -t * -a 4 -s 4 -S UP -v circle -c black -i black
n -t * -a 0 -s 0 -S UP -v circle -c black -i black
n -t * -a 5 -s 5 -S UP -v circle -c black -i black
n -t * -a 1 -s 1 -S UP -v circle -c black -i black
n -t * -a 2 -s 2 -S UP -v circle -c black -i black
n -t * -a 3 -s 3 -S UP -v circle -c black -i black
l -t * -s 2 -d 0 -S UP -r 10000000 -D 0.002 -c black
l -t * -s 3 -d 0 -S UP -r 10000000 -D 0.0030000000000000001 -c black
l -t * -s 4 -d 1 -S UP -r 10000000 -D 0.0040000000000000001 -c black
l -t * -s 5 -d 1 -S UP -r 10000000 -D 0.0050000000000000001 -c black
l -t * -s 0 -d 1 -S UP -r 1000000 -D 0.02 -c black
+ -t 0.000169788487334637 -s 0 -d 1 -p rtProtoDV -e 6 -c 0 -i 0 -a 0 -x {0.1 1.1 -1 ------- null}
- -t 0.000169788487334637 -s 0 -d 1 -p rtProtoDV -e 6 -c 0 -i 0 -a 0 -x {0.1 1.1 -1 ------- null}
h -t 0.000169788487334637 -s 0 -d 1 -p rtProtoDV -e 6 -c 0 -i 0 -a 0 -x {0.1 1.1 -1 ------- null}
+ -t 0.000169788487334637 -s 0 -d 2 -p rtProtoDV -e 6 -c 0 -i 1 -a 0 -x {0.1 2.2 -1 ------- null}
- -t 0.000169788487334637 -s 0 -d 2 -p rtProtoDV -e 6 -c 0 -i 1 -a 0 -x {0.1 2.2 -1 ------- null}
h -t 0.000169788487334637 -s 0 -d 2 -p rtProtoDV -e 6 -c 0 -i 1 -a 0 -x {0.1 2.2 -1 ------- null}
+ -t 0.000169788487334637 -s 0 -d 3 -p rtProtoDV -e 6 -c 0 -i 2 -a 0 -x {0.1 3.2 -1 ------- null}
- -t 0.000169788487334637 -s 0 -d 3 -p rtProtoDV -e 6 -c 0 -i 2 -a 0 -x {0.1 3.2 -1 ------- null}
h -t 0.000169788487334637 -s 0 -d 3 -p rtProtoDV -e 6 -c 0 -i 2 -a 0 -x {0.1 3.2 -1 ------- null}
r -t 0.00217458848733464 -s 0 -d 2 -p rtProtoDV -e 6 -c 0 -i 1 -a 0 -x {0.1 2.2 -1 ------- null}
+ -t 0.00217458848733464 -s 2 -d 0 -p rtProtoDV -e 6 -c 0 -i 3 -a 0 -x {2.2 0.1 -1 ------- null}
- -t 0.00217458848733464 -s 2 -d 0 -p rtProtoDV -e 6 -c 0 -i 3 -a 0 -x {2.2 0.1 -1 ------- null}
h -t 0.00217458848733464 -s 2 -d 0 -p rtProtoDV -e 6 -c 0 -i 3 -a 0 -x {2.2 0.1 -1 ------- null}
r -t 0.00317458848733464 -s 0 -d 3 -p rtProtoDV -e 6 -c 0 -i 2 -a 0 -x {0.1 3.2 -1 ------- null}
+ -t 0.00317458848733464 -s 3 -d 0 -p rtProtoDV -e 6 -c 0 -i 4 -a 0 -x {3.2 0.1 -1 ------- null}
- -t 0.00317458848733464 -s 3 -d 0 -p rtProtoDV -e 6 -c 0 -i 4 -a 0 -x {3.2 0.1 -1 ------- null}
h -t 0.00317458848733464 -s 3 -d 0 -p rtProtoDV -e 6 -c 0 -i 4 -a 0 -x {3.2 0.1 -1 ------- null}
r -t 0.00417938848733464 -s 2 -d 0 -p rtProtoDV -e 6 -c 0 -i 3 -a 0 -x {2.2 0.1 -1 ------- null}
r -t 0.00617938848733464 -s 3 -d 0 -p rtProtoDV -e 6 -c 0 -i 4 -a 0 -x {3.2 0.1 -1 ------- null}
+ -t 0.00710233021858257 -s 2 -d 0 -p rtProtoDV -e 6 -c 0 -i 5 -a 0 -x {2.2 0.1 -1 ------- null}
- -t 0.00710233021858257 -s 2 -d 0 -p rtProtoDV -e 6 -c 0 -i 5 -a 0 -x {2.2 0.1 -1 ------- null}
h -t 0.00710233021858257 -s 2 -d 0 -p rtProtoDV -e 6 -c 0 -i 5 -a 0 -x {2.2 0.1 -1 ------- null}
r -t 0.00910713021858257 -s 2 -d 0 -p rtProtoDV -e 6 -c 0 -i 5 -a 0 -x {2.2 0.1 -1 ------- null}
r -t 0.0202177884873346 -s 0 -d 1 -p rtProtoDV -e 6 -c 0 -i 0 -a 0 -x {0.1 1.1 -1 ------- null}
+ -t 0.0202177884873346 -s 1 -d 0 -p rtProtoDV -e 6 -c 0 -i 6 -a 0 -x {1.1 0.1 -1 ------- null}
- -t 0.0202177884873346 -s 1 -d 0 -p rtProtoDV -e 6 -c 0 -i 6 -a 0 -x {1.1 0.1 -1 ------- null}
h -t 0.0202177884873346 -s 1 -d 0 -p rtProtoDV -e 6 -c 0 -i 6 -a 0 -x {1.1 0.1 -1 ------- null}
+ -t 0.0202177884873346 -s 1 -d 4 -p rtProtoDV -e 6 -c 0 -i 7 -a 0 -x {1.1 4.2 -1 ------- null}
- -t 0.0202177884873346 -s 1 -d 4 -p rtProtoDV -e 6 -c 0 -i 7 -a 0 -x {1.1 4.2 -1 ------- null}
h -t 0.0202177884873346 -s 1 -d 4 -p rtProtoDV -e 6 -c 0 -i 7 -a 0 -x {1.1 4.2 -1 ------- null}
+ -t 0.0202177884873346 -s 1 -d 5 -p rtProtoDV -e 6 -c 0 -i 8 -a 0 -x {1.1 5.2 -1 ------- null}
- -t 0.0202177884873346 -s 1 -d 5 -p rtProtoDV -e 6 -c 0 -i 8 -a 0 -x {1.1 5.2 -1 ------- null}
h -t 0.0202177884873346 -s 1 -d 5 -p rtProtoDV -e 6 -c 0 -i 8 -a 0 -x {1.1 5.2 -1 ------- null}
r -t 0.0242225884873346 -s 1 -d 4 -p rtProtoDV -e 6 -c 0 -i 7 -a 0 -x {1.1 4.2 -1 ------- null}
+ -t 0.0242225884873346 -s 4 -d 1 -p rtProtoDV -e 6 -c 0 -i 9 -a 0 -x {4.2 1.1 -1 ------- null}
- -t 0.0242225884873346 -s 4 -d 1 -p rtProtoDV -e 6 -c 0 -i 9 -a 0 -x {4.2 1.1 -1 ------- null}
h -t 0.0242225884873346 -s 4 -d 1 -p rtProtoDV -e 6 -c 0 -i 9 -a 0 -x {4.2 1.1 -1 ------- null}
r -t 0.0252225884873346 -s 1 -d 5 -p rtProtoDV -e 6 -c 0 -i 8 -a 0 -x {1.1 5.2 -1 ------- null}
+ -t 0.0252225884873346 -s 5 -d 1 -p rtProtoDV -e 6 -c 0 -i 10 -a 0 -x {5.2 1.1 -1 ------- null}
- -t 0.0252225884873346 -s 5 -d 1 -p rtProtoDV -e 6 -c 0 -i 10 -a 0 -x {5.2 1.1 -1 ------- null}
h -t 0.0252225884873346 -s 5 -d 1 -p rtProtoDV -e 6 -c 0 -i 10 -a 0 -x {5.2 1.1 -1 ------- null}
r -t 0.0282273884873346 -s 4 -d 1 -p rtProtoDV -e 6 -c 0 -i 9 -a 0 -x {4.2 1.1 -1 ------- null}
r -t 0.0302273884873346 -s 5 -d 1 -p rtProtoDV -e 6 -c 0 -i 10 -a 0 -x {5.2 1.1 -1 ------- null}
r -t 0.0402657884873346 -s 1 -d 0 -p rtProtoDV -e 6 -c 0 -i 6 -a 0 -x {1.1 0.1 -1 ------- null}
+ -t 0.0402657884873346 -s 0 -d 1 -p rtProtoDV -e 6 -c 0 -i 11 -a 0 -x {0.1 1.1 -1 ------- null}
- -t 0.0402657884873346 -s 0 -d 1 -p rtProtoDV -e 6 -c 0 -i 11 -a 0 -x {0.1 1.1 -1 ------- null}
h -t 0.0402657884873346 -s 0 -d 1 -p rtProtoDV -e 6 -c 0 -i 11 -a 0 -x {0.1 1.1 -1 ------- null}
+ -t 0.0402657884873346 -s 0 -d 2 -p rtProtoDV -e 6 -c 0 -i 12 -a 0 -x {0.1 2.2 -1 ------- null}
- -t 0.0402657884873346 -s 0 -d 2 -p rtProtoDV -e 6 -c 0 -i 12 -a 0 -x {0.1 2.2 -1 ------- null}
h -t 0.0402657884873346 -s 0 -d 2 -p rtProtoDV -e 6 -c 0 -i 12 -a 0 -x {0.1 2.2 -1 ------- null}
+ -t 0.0402657884873346 -s 0 -d 3 -p rtProtoDV -e 6 -c 0 -i 13 -a 0 -x {0.1 3.2 -1 ------- null}
- -t 0.0402657884873346 -s 0 -d 3 -p rtProtoDV -e 6 -c 0 -i 13 -a 0 -x {0.1 3.2 -1 ------- null}
h -t 0.0402657884873346 -s 0 -d 3 -p rtProtoDV -e 6 -c 0 -i 13 -a 0 -x {0.1 3.2 -1 ------- null}
r -t 0.0422705884873346 -s 0 -d 2 -p rtProtoDV -e 6 -c 0 -i 12 -a 0 -x {0.1 2.2 -1 ------- null}
+ -t 0.0422705884873346 -s 2 -d 0 -p rtProtoDV -e 6 -c 0 -i 14 -a 0 -x {2.2 0.1 -1 ------- null}
- -t 0.0422705884873346 -s 2 -d 0 -p rtProtoDV -e 6 -c 0 -i 14 -a 0 -x {2.2 0.1 -1 ------- null}
h -t 0.0422705884873346 -s 2 -d 0 -p rtProtoDV -e 6 -c 0 -i 14 -a 0 -x {2.2 0.1 -1 ------- null}
r -t 0.0432705884873346 -s 0 -d 3 -p rtProtoDV -e 6 -c 0 -i 13 -a 0 -x {0.1 3.2 -1 ------- null}
+ -t 0.0432705884873346 -s 3 -d 0 -p rtProtoDV -e 6 -c 0 -i 15 -a 0 -x {3.2 0.1 -1 ------- null}
- -t 0.0432705884873346 -s 3 -d 0 -p rtProtoDV -e 6 -c 0 -i 15 -a 0 -x {3.2 0.1 -1 ------- null}
h -t 0.0432705884873346 -s 3 -d 0 -p rtProtoDV -e 6 -c 0 -i 15 -a 0 -x {3.2 0.1 -1 ------- null}
+ -t 0.04406133552271 -s 3 -d 0 -p rtProtoDV -e 6 -c 0 -i 16 -a 0 -x {3.2 0.1 -1 ------- null}
- -t 0.04406133552271 -s 3 -d 0 -p rtProtoDV -e 6 -c 0 -i 16 -a 0 -x {3.2 0.1 -1 ------- null}
h -t 0.04406133552271 -s 3 -d 0 -p rtProtoDV -e 6 -c 0 -i 16 -a 0 -x {3.2 0.1 -1 ------- null}
r -t 0.0442753884873346 -s 2 -d 0 -p rtProtoDV -e 6 -c 0 -i 14 -a 0 -x {2.2 0.1 -1 ------- null}
r -t 0.0462753884873346 -s 3 -d 0 -p rtProtoDV -e 6 -c 0 -i 15 -a 0 -x {3.2 0.1 -1 ------- null}
r -t 0.04706613552271 -s 3 -d 0 -p rtProtoDV -e 6 -c 0 -i 16 -a 0 -x {3.2 0.1 -1 ------- null}
r -t 0.0603137884873346 -s 0 -d 1 -p rtProtoDV -e 6 -c 0 -i 11 -a 0 -x {0.1 1.1 -1 ------- null}
+ -t 0.1 -s 3 -d 0 -p tcp -e 40 -c 2 -i 17 -a 2 -x {3.0 5.0 0 ------- null}
- -t 0.1 -s 3 -d 0 -p tcp -e 40 -c 2 -i 17 -a 2 -x {3.0 5.0 0 ------- null}
h -t 0.1 -s 3 -d 0 -p tcp -e 40 -c 2 -i 17 -a 2 -x {3.0 5.0 -1 ------- null}
+ -t 0.1 -s 2 -d 0 -p tcp -e 40 -c 1 -i 18 -a 1 -x {2.0 4.0 0 ------- null}
- -t 0.1 -s 2 -d 0 -p tcp -e 40 -c 1 -i 18 -a 1 -x {2.0 4.0 0 ------- null}
h -t 0.1 -s 2 -d 0 -p tcp -e 40 -c 1 -i 18 -a 1 -x {2.0 4.0 -1 ------- null}
r -t 0.102032 -s 2 -d 0 -p tcp -e 40 -c 1 -i 18 -a 1 -x {2.0 4.0 0 ------- null}
+ -t 0.102032 -s 0 -d 1 -p tcp -e 40 -c 1 -i 18 -a 1 -x {2.0 4.0 0 ------- null}
- -t 0.102032 -s 0 -d 1 -p tcp -e 40 -c 1 -i 18 -a 1 -x {2.0 4.0 0 ------- null}
h -t 0.102032 -s 0 -d 1 -p tcp -e 40 -c 1 -i 18 -a 1 -x {2.0 4.0 -1 ------- null}
r -t 0.103032 -s 3 -d 0 -p tcp -e 40 -c 2 -i 17 -a 2 -x {3.0 5.0 0 ------- null}
+ -t 0.103032 -s 0 -d 1 -p tcp -e 40 -c 2 -i 17 -a 2 -x {3.0 5.0 0 ------- null}
- -t 0.103032 -s 0 -d 1 -p tcp -e 40 -c 2 -i 17 -a 2 -x {3.0 5.0 0 ------- null}
h -t 0.103032 -s 0 -d 1 -p tcp -e 40 -c 2 -i 17 -a 2 -x {3.0 5.0 -1 ------- null}
r -t 0.122352 -s 0 -d 1 -p tcp -e 40 -c 1 -i 18 -a 1 -x {2.0 4.0 0 ------- null}
+ -t 0.122352 -s 1 -d 4 -p tcp -e 40 -c 1 -i 18 -a 1 -x {2.0 4.0 0 ------- null}
- -t 0.122352 -s 1 -d 4 -p tcp -e 40 -c 1 -i 18 -a 1 -x {2.0 4.0 0 ------- null}
h -t 0.122352 -s 1 -d 4 -p tcp -e 40 -c 1 -i 18 -a 1 -x {2.0 4.0 -1 ------- null}
r -t 0.123352 -s 0 -d 1 -p tcp -e 40 -c 2 -i 17 -a 2 -x {3.0 5.0 0 ------- null}
+ -t 0.123352 -s 1 -d 5 -p tcp -e 40 -c 2 -i 17 -a 2 -x {3.0 5.0 0 ------- null}
- -t 0.123352 -s 1 -d 5 -p tcp -e 40 -c 2 -i 17 -a 2 -x {3.0 5.0 0 ------- null}
h -t 0.123352 -s 1 -d 5 -p tcp -e 40 -c 2 -i 17 -a 2 -x {3.0 5.0 -1 ------- null}
r -t 0.126384 -s 1 -d 4 -p tcp -e 40 -c 1 -i 18 -a 1 -x {2.0 4.0 0 ------- null}
+ -t 0.126384 -s 4 -d 1 -p ack -e 40 -c 1 -i 19 -a 1 -x {4.0 2.0 0 ------- null}
- -t 0.126384 -s 4 -d 1 -p ack -e 40 -c 1 -i 19 -a 1 -x {4.0 2.0 0 ------- null}
h -t 0.126384 -s 4 -d 1 -p ack -e 40 -c 1 -i 19 -a 1 -x {4.0 2.0 -1 ------- null}
r -t 0.128384 -s 1 -d 5 -p tcp -e 40 -c 2 -i 17 -a 2 -x {3.0 5.0 0 ------- null}
+ -t 0.128384 -s 5 -d 1 -p ack -e 40 -c 2 -i 20 -a 2 -x {5.0 3.0 0 ------- null}
- -t 0.128384 -s 5 -d 1 -p ack -e 40 -c 2 -i 20 -a 2 -x {5.0 3.0 0 ------- null}
h -t 0.128384 -s 5 -d 1 -p ack -e 40 -c 2 -i 20 -a 2 -x {5.0 3.0 -1 ------- null}
r -t 0.130416 -s 4 -d 1 -p ack -e 40 -c 1 -i 19 -a 1 -x {4.0 2.0 0 ------- null}
+ -t 0.130416 -s 1 -d 0 -p ack -e 40 -c 1 -i 19 -a 1 -x {4.0 2.0 0 ------- null}
- -t 0.130416 -s 1 -d 0 -p ack -e 40 -c 1 -i 19 -a 1 -x {4.0 2.0 0 ------- null}
h -t 0.130416 -s 1 -d 0 -p ack -e 40 -c 1 -i 19 -a 1 -x {4.0 2.0 -1 ------- null}
r -t 0.133416 -s 5 -d 1 -p ack -e 40 -c 2 -i 20 -a 2 -x {5.0 3.0 0 ------- null}
+ -t 0.133416 -s 1 -d 0 -p ack -e 40 -c 2 -i 20 -a 2 -x {5.0 3.0 0 ------- null}
- -t 0.133416 -s 1 -d 0 -p ack -e 40 -c 2 -i 20 -a 2 -x {5.0 3.0 0 ------- null}
h -t 0.133416 -s 1 -d 0 -p ack -e 40 -c 2 -i 20 -a 2 -x {5.0 3.0 -1 ------- null}
r -t 0.150736 -s 1 -d 0 -p ack -e 40 -c 1 -i 19 -a 1 -x {4.0 2.0 0 ------- null}
+ -t 0.150736 -s 0 -d 2 -p ack -e 40 -c 1 -i 19 -a 1 -x {4.0 2.0 0 ------- null}
- -t 0.150736 -s 0 -d 2 -p ack -e 40 -c 1 -i 19 -a 1 -x {4.0 2.0 0 ------- null}
h -t 0.150736 -s 0 -d 2 -p ack -e 40 -c 1 -i 19 -a 1 -x {4.0 2.0 -1 ------- null}
r -t 0.152768 -s 0 -d 2 -p ack -e 40 -c 1 -i 19 -a 1 -x {4.0 2.0 0 ------- null}
+ -t 0.152768 -s 2 -d 0 -p tcp -e 1040 -c 1 -i 21 -a 1 -x {2.0 4.0 1 ------- null}
- -t 0.152768 -s 2 -d 0 -p tcp -e 1040 -c 1 -i 21 -a 1 -x {2.0 4.0 1 ------- null}
h -t 0.152768 -s 2 -d 0 -p tcp -e 1040 -c 1 -i 21 -a 1 -x {2.0 4.0 -1 ------- null}
+ -t 0.152768 -s 2 -d 0 -p tcp -e 1040 -c 1 -i 22 -a 1 -x {2.0 4.0 2 ------- null}
- -t 0.1536 -s 2 -d 0 -p tcp -e 1040 -c 1 -i 22 -a 1 -x {2.0 4.0 2 ------- null}
h -t 0.1536 -s 2 -d 0 -p tcp -e 1040 -c 1 -i 22 -a 1 -x {2.0 4.0 -1 ------- null}
r -t 0.153736 -s 1 -d 0 -p ack -e 40 -c 2 -i 20 -a 2 -x {5.0 3.0 0 ------- null}
+ -t 0.153736 -s 0 -d 3 -p ack -e 40 -c 2 -i 20 -a 2 -x {5.0 3.0 0 ------- null}
- -t 0.153736 -s 0 -d 3 -p ack -e 40 -c 2 -i 20 -a 2 -x {5.0 3.0 0 ------- null}
h -t 0.153736 -s 0 -d 3 -p ack -e 40 -c 2 -i 20 -a 2 -x {5.0 3.0 -1 ------- null}
r -t 0.1556 -s 2 -d 0 -p tcp -e 1040 -c 1 -i 21 -a 1 -x {2.0 4.0 1 ------- null}
+ -t 0.1556 -s 0 -d 1 -p tcp -e 1040 -c 1 -i 21 -a 1 -x {2.0 4.0 1 ------- null}
- -t 0.1556 -s 0 -d 1 -p tcp -e 1040 -c 1 -i 21 -a 1 -x {2.0 4.0 1 ------- null}
h -t 0.1556 -s 0 -d 1 -p tcp -e 1040 -c 1 -i 21 -a 1 -x {2.0 4.0 -1 ------- null}
r -t 0.156432 -s 2 -d 0 -p tcp -e 1040 -c 1 -i 22 -a 1 -x {2.0 4.0 2 ------- null}
+ -t 0.156432 -s 0 -d 1 -p tcp -e 1040 -c 1 -i 22 -a 1 -x {2.0 4.0 2 ------- null}
r -t 0.156768 -s 0 -d 3 -p ack -e 40 -c 2 -i 20 -a 2 -x {5.0 3.0 0 ------- null}
+ -t 0.156768 -s 3 -d 0 -p tcp -e 1040 -c 2 -i 23 -a 2 -x {3.0 5.0 1 ------- null}
- -t 0.156768 -s 3 -d 0 -p tcp -e 1040 -c 2 -i 23 -a 2 -x {3.0 5.0 1 ------- null}
h -t 0.156768 -s 3 -d 0 -p tcp -e 1040 -c 2 -i 23 -a 2 -x {3.0 5.0 -1 ------- null}
+ -t 0.156768 -s 3 -d 0 -p tcp -e 1040 -c 2 -i 24 -a 2 -x {3.0 5.0 2 ------- null}
- -t 0.1576 -s 3 -d 0 -p tcp -e 1040 -c 2 -i 24 -a 2 -x {3.0 5.0 2 ------- null}
h -t 0.1576 -s 3 -d 0 -p tcp -e 1040 -c 2 -i 24 -a 2 -x {3.0 5.0 -1 ------- null}
r -t 0.1606 -s 3 -d 0 -p tcp -e 1040 -c 2 -i 23 -a 2 -x {3.0 5.0 1 ------- null}
+ -t 0.1606 -s 0 -d 1 -p tcp -e 1040 -c 2 -i 23 -a 2 -x {3.0 5.0 1 ------- null}
r -t 0.161432 -s 3 -d 0 -p tcp -e 1040 -c 2 -i 24 -a 2 -x {3.0 5.0 2 ------- null}
+ -t 0.161432 -s 0 -d 1 -p tcp -e 1040 -c 2 -i 24 -a 2 -x {3.0 5.0 2 ------- null}
- -t 0.16392 -s 0 -d 1 -p tcp -e 1040 -c 1 -i 22 -a 1 -x {2.0 4.0 2 ------- null}
h -t 0.16392 -s 0 -d 1 -p tcp -e 1040 -c 1 -i 22 -a 1 -x {2.0 4.0 -1 ------- null}
- -t 0.17224 -s 0 -d 1 -p tcp -e 1040 -c 2 -i 23 -a 2 -x {3.0 5.0 1 ------- null}
h -t 0.17224 -s 0 -d 1 -p tcp -e 1040 -c 2 -i 23 -a 2 -x {3.0 5.0 -1 ------- null}
- -t 0.18056 -s 0 -d 1 -p tcp -e 1040 -c 2 -i 24 -a 2 -x {3.0 5.0 2 ------- null}
h -t 0.18056 -s 0 -d 1 -p tcp -e 1040 -c 2 -i 24 -a 2 -x {3.0 5.0 -1 ------- null}
r -t 0.18392 -s 0 -d 1 -p tcp -e 1040 -c 1 -i 21 -a 1 -x {2.0 4.0 1 ------- null}
+ -t 0.18392 -s 1 -d 4 -p tcp -e 1040 -c 1 -i 21 -a 1 -x {2.0 4.0 1 ------- null}
- -t 0.18392 -s 1 -d 4 -p tcp -e 1040 -c 1 -i 21 -a 1 -x {2.0 4.0 1 ------- null}
h -t 0.18392 -s 1 -d 4 -p tcp -e 1040 -c 1 -i 21 -a 1 -x {2.0 4.0 -1 ------- null}
r -t 0.188752 -s 1 -d 4 -p tcp -e 1040 -c 1 -i 21 -a 1 -x {2.0 4.0 1 ------- null}
+ -t 0.188752 -s 4 -d 1 -p ack -e 40 -c 1 -i 25 -a 1 -x {4.0 2.0 1 ------- null}
- -t 0.188752 -s 4 -d 1 -p ack -e 40 -c 1 -i 25 -a 1 -x {4.0 2.0 1 ------- null}
h -t 0.188752 -s 4 -d 1 -p ack -e 40 -c 1 -i 25 -a 1 -x {4.0 2.0 -1 ------- null}
r -t 0.19224 -s 0 -d 1 -p tcp -e 1040 -c 1 -i 22 -a 1 -x {2.0 4.0 2 ------- null}
+ -t 0.19224 -s 1 -d 4 -p tcp -e 1040 -c 1 -i 22 -a 1 -x {2.0 4.0 2 ------- null}
- -t 0.19224 -s 1 -d 4 -p tcp -e 1040 -c 1 -i 22 -a 1 -x {2.0 4.0 2 ------- null}
h -t 0.19224 -s 1 -d 4 -p tcp -e 1040 -c 1 -i 22 -a 1 -x {2.0 4.0 -1 ------- null}
r -t 0.192784 -s 4 -d 1 -p ack -e 40 -c 1 -i 25 -a 1 -x {4.0 2.0 1 ------- null}
+ -t 0.192784 -s 1 -d 0 -p ack -e 40 -c 1 -i 25 -a 1 -x {4.0 2.0 1 ------- null}
- -t 0.192784 -s 1 -d 0 -p ack -e 40 -c 1 -i 25 -a 1 -x {4.0 2.0 1 ------- null}
h -t 0.192784 -s 1 -d 0 -p ack -e 40 -c 1 -i 25 -a 1 -x {4.0 2.0 -1 ------- null}
r -t 0.197072 -s 1 -d 4 -p tcp -e 1040 -c 1 -i 22 -a 1 -x {2.0 4.0 2 ------- null}
+ -t 0.197072 -s 4 -d 1 -p ack -e 40 -c 1 -i 26 -a 1 -x {4.0 2.0 2 ------- null}
- -t 0.197072 -s 4 -d 1 -p ack -e 40 -c 1 -i 26 -a 1 -x {4.0 2.0 2 ------- null}
h -t 0.197072 -s 4 -d 1 -p ack -e 40 -c 1 -i 26 -a 1 -x {4.0 2.0 -1 ------- null}
r -t 0.20056 -s 0 -d 1 -p tcp -e 1040 -c 2 -i 23 -a 2 -x {3.0 5.0 1 ------- null}
+ -t 0.20056 -s 1 -d 5 -p tcp -e 1040 -c 2 -i 23 -a 2 -x {3.0 5.0 1 ------- null}
- -t 0.20056 -s 1 -d 5 -p tcp -e 1040 -c 2 -i 23 -a 2 -x {3.0 5.0 1 ------- null}
h -t 0.20056 -s 1 -d 5 -p tcp -e 1040 -c 2 -i 23 -a 2 -x {3.0 5.0 -1 ------- null}
r -t 0.201104 -s 4 -d 1 -p ack -e 40 -c 1 -i 26 -a 1 -x {4.0 2.0 2 ------- null}
+ -t 0.201104 -s 1 -d 0 -p ack -e 40 -c 1 -i 26 -a 1 -x {4.0 2.0 2 ------- null}
- -t 0.201104 -s 1 -d 0 -p ack -e 40 -c 1 -i 26 -a 1 -x {4.0 2.0 2 ------- null}
h -t 0.201104 -s 1 -d 0 -p ack -e 40 -c 1 -i 26 -a 1 -x {4.0 2.0 -1 ------- null}
r -t 0.206392 -s 1 -d 5 -p tcp -e 1040 -c 2 -i 23 -a 2 -x {3.0 5.0 1 ------- null}
+ -t 0.206392 -s 5 -d 1 -p ack -e 40 -c 2 -i 27 -a 2 -x {5.0 3.0 1 ------- null}
- -t 0.206392 -s 5 -d 1 -p ack -e 40 -c 2 -i 27 -a 2 -x {5.0 3.0 1 ------- null}
h -t 0.206392 -s 5 -d 1 -p ack -e 40 -c 2 -i 27 -a 2 -x {5.0 3.0 -1 ------- null}
r -t 0.20888 -s 0 -d 1 -p tcp -e 1040 -c 2 -i 24 -a 2 -x {3.0 5.0 2 ------- null}
+ -t 0.20888 -s 1 -d 5 -p tcp -e 1040 -c 2 -i 24 -a 2 -x {3.0 5.0 2 ------- null}
- -t 0.20888 -s 1 -d 5 -p tcp -e 1040 -c 2 -i 24 -a 2 -x {3.0 5.0 2 ------- null}
h -t 0.20888 -s 1 -d 5 -p tcp -e 1040 -c 2 -i 24 -a 2 -x {3.0 5.0 -1 ------- null}
r -t 0.211424 -s 5 -d 1 -p ack -e 40 -c 2 -i 27 -a 2 -x {5.0 3.0 1 ------- null}
+ -t 0.211424 -s 1 -d 0 -p ack -e 40 -c 2 -i 27 -a 2 -x {5.0 3.0 1 ------- null}
- -t 0.211424 -s 1 -d 0 -p ack -e 40 -c 2 -i 27 -a 2 -x {5.0 3.0 1 ------- null}
h -t 0.211424 -s 1 -d 0 -p ack -e 40 -c 2 -i 27 -a 2 -x {5.0 3.0 -1 ------- null}
r -t 0.213104 -s 1 -d 0 -p ack -e 40 -c 1 -i 25 -a 1 -x {4.0 2.0 1 ------- null}
+ -t 0.213104 -s 0 -d 2 -p ack -e 40 -c 1 -i 25 -a 1 -x {4.0 2.0 1 ------- null}
- -t 0.213104 -s 0 -d 2 -p ack -e 40 -c 1 -i 25 -a 1 -x {4.0 2.0 1 ------- null}
h -t 0.213104 -s 0 -d 2 -p ack -e 40 -c 1 -i 25 -a 1 -x {4.0 2.0 -1 ------- null}
r -t 0.214712 -s 1 -d 5 -p tcp -e 1040 -c 2 -i 24 -a 2 -x {3.0 5.0 2 ------- null}
+ -t 0.214712 -s 5 -d 1 -p ack -e 40 -c 2 -i 28 -a 2 -x {5.0 3.0 2 ------- null}
- -t 0.214712 -s 5 -d 1 -p ack -e 40 -c 2 -i 28 -a 2 -x {5.0 3.0 2 ------- null}
h -t 0.214712 -s 5 -d 1 -p ack -e 40 -c 2 -i 28 -a 2 -x {5.0 3.0 -1 ------- null}
r -t 0.215136 -s 0 -d 2 -p ack -e 40 -c 1 -i 25 -a 1 -x {4.0 2.0 1 ------- null}
+ -t 0.215136 -s 2 -d 0 -p tcp -e 1040 -c 1 -i 29 -a 1 -x {2.0 4.0 3 ------- null}
- -t 0.215136 -s 2 -d 0 -p tcp -e 1040 -c 1 -i 29 -a 1 -x {2.0 4.0 3 ------- null}
h -t 0.215136 -s 2 -d 0 -p tcp -e 1040 -c 1 -i 29 -a 1 -x {2.0 4.0 -1 ------- null}
+ -t 0.215136 -s 2 -d 0 -p tcp -e 1040 -c 1 -i 30 -a 1 -x {2.0 4.0 4 ------- null}
- -t 0.215968 -s 2 -d 0 -p tcp -e 1040 -c 1 -i 30 -a 1 -x {2.0 4.0 4 ------- null}
h -t 0.215968 -s 2 -d 0 -p tcp -e 1040 -c 1 -i 30 -a 1 -x {2.0 4.0 -1 ------- null}
r -t 0.217968 -s 2 -d 0 -p tcp -e 1040 -c 1 -i 29 -a 1 -x {2.0 4.0 3 ------- null}
+ -t 0.217968 -s 0 -d 1 -p tcp -e 1040 -c 1 -i 29 -a 1 -x {2.0 4.0 3 ------- null}
- -t 0.217968 -s 0 -d 1 -p tcp -e 1040 -c 1 -i 29 -a 1 -x {2.0 4.0 3 ------- null}
h -t 0.217968 -s 0 -d 1 -p tcp -e 1040 -c 1 -i 29 -a 1 -x {2.0 4.0 -1 ------- null}
r -t 0.2188 -s 2 -d 0 -p tcp -e 1040 -c 1 -i 30 -a 1 -x {2.0 4.0 4 ------- null}
+ -t 0.2188 -s 0 -d 1 -p tcp -e 1040 -c 1 -i 30 -a 1 -x {2.0 4.0 4 ------- null}
r -t 0.219744 -s 5 -d 1 -p ack -e 40 -c 2 -i 28 -a 2 -x {5.0 3.0 2 ------- null}
+ -t 0.219744 -s 1 -d 0 -p ack -e 40 -c 2 -i 28 -a 2 -x {5.0 3.0 2 ------- null}
- -t 0.219744 -s 1 -d 0 -p ack -e 40 -c 2 -i 28 -a 2 -x {5.0 3.0 2 ------- null}
h -t 0.219744 -s 1 -d 0 -p ack -e 40 -c 2 -i 28 -a 2 -x {5.0 3.0 -1 ------- null}
+ -t 0.22058669092161 -s 4 -d 1 -p rtProtoDV -e 6 -c 0 -i 31 -a 0 -x {4.2 1.1 -1 ------- null}
- -t 0.22058669092161 -s 4 -d 1 -p rtProtoDV -e 6 -c 0 -i 31 -a 0 -x {4.2 1.1 -1 ------- null}
h -t 0.22058669092161 -s 4 -d 1 -p rtProtoDV -e 6 -c 0 -i 31 -a 0 -x {4.2 1.1 -1 ------- null}
r -t 0.221424 -s 1 -d 0 -p ack -e 40 -c 1 -i 26 -a 1 -x {4.0 2.0 2 ------- null}
+ -t 0.221424 -s 0 -d 2 -p ack -e 40 -c 1 -i 26 -a 1 -x {4.0 2.0 2 ------- null}
- -t 0.221424 -s 0 -d 2 -p ack -e 40 -c 1 -i 26 -a 1 -x {4.0 2.0 2 ------- null}
h -t 0.221424 -s 0 -d 2 -p ack -e 40 -c 1 -i 26 -a 1 -x {4.0 2.0 -1 ------- null}
r -t 0.223456 -s 0 -d 2 -p ack -e 40 -c 1 -i 26 -a 1 -x {4.0 2.0 2 ------- null}
+ -t 0.223456 -s 2 -d 0 -p tcp -e 1040 -c 1 -i 32 -a 1 -x {2.0 4.0 5 ------- null}
- -t 0.223456 -s 2 -d 0 -p tcp -e 1040 -c 1 -i 32 -a 1 -x {2.0 4.0 5 ------- null}
h -t 0.223456 -s 2 -d 0 -p tcp -e 1040 -c 1 -i 32 -a 1 -x {2.0 4.0 -1 ------- null}
+ -t 0.223456 -s 2 -d 0 -p tcp -e 1040 -c 1 -i 33 -a 1 -x {2.0 4.0 6 ------- null}
- -t 0.224288 -s 2 -d 0 -p tcp -e 1040 -c 1 -i 33 -a 1 -x {2.0 4.0 6 ------- null}
h -t 0.224288 -s 2 -d 0 -p tcp -e 1040 -c 1 -i 33 -a 1 -x {2.0 4.0 -1 ------- null}
r -t 0.22459149092161 -s 4 -d 1 -p rtProtoDV -e 6 -c 0 -i 31 -a 0 -x {4.2 1.1 -1 ------- null}
- -t 0.226288 -s 0 -d 1 -p tcp -e 1040 -c 1 -i 30 -a 1 -x {2.0 4.0 4 ------- null}
h -t 0.226288 -s 0 -d 1 -p tcp -e 1040 -c 1 -i 30 -a 1 -x {2.0 4.0 -1 ------- null}
r -t 0.226288 -s 2 -d 0 -p tcp -e 1040 -c 1 -i 32 -a 1 -x {2.0 4.0 5 ------- null}
+ -t 0.226288 -s 0 -d 1 -p tcp -e 1040 -c 1 -i 32 -a 1 -x {2.0 4.0 5 ------- null}
r -t 0.22712 -s 2 -d 0 -p tcp -e 1040 -c 1 -i 33 -a 1 -x {2.0 4.0 6 ------- null}
+ -t 0.22712 -s 0 -d 1 -p tcp -e 1040 -c 1 -i 33 -a 1 -x {2.0 4.0 6 ------- null}
r -t 0.231744 -s 1 -d 0 -p ack -e 40 -c 2 -i 27 -a 2 -x {5.0 3.0 1 ------- null}
+ -t 0.231744 -s 0 -d 3 -p ack -e 40 -c 2 -i 27 -a 2 -x {5.0 3.0 1 ------- null}
- -t 0.231744 -s 0 -d 3 -p ack -e 40 -c 2 -i 27 -a 2 -x {5.0 3.0 1 ------- null}
h -t 0.231744 -s 0 -d 3 -p ack -e 40 -c 2 -i 27 -a 2 -x {5.0 3.0 -1 ------- null}
- -t 0.234608 -s 0 -d 1 -p tcp -e 1040 -c 1 -i 32 -a 1 -x {2.0 4.0 5 ------- null}
h -t 0.234608 -s 0 -d 1 -p tcp -e 1040 -c 1 -i 32 -a 1 -x {2.0 4.0 -1 ------- null}
r -t 0.234776 -s 0 -d 3 -p ack -e 40 -c 2 -i 27 -a 2 -x {5.0 3.0 1 ------- null}
+ -t 0.234776 -s 3 -d 0 -p tcp -e 1040 -c 2 -i 34 -a 2 -x {3.0 5.0 3 ------- null}
- -t 0.234776 -s 3 -d 0 -p tcp -e 1040 -c 2 -i 34 -a 2 -x {3.0 5.0 3 ------- null}
h -t 0.234776 -s 3 -d 0 -p tcp -e 1040 -c 2 -i 34 -a 2 -x {3.0 5.0 -1 ------- null}
+ -t 0.234776 -s 3 -d 0 -p tcp -e 1040 -c 2 -i 35 -a 2 -x {3.0 5.0 4 ------- null}
- -t 0.235608 -s 3 -d 0 -p tcp -e 1040 -c 2 -i 35 -a 2 -x {3.0 5.0 4 ------- null}
h -t 0.235608 -s 3 -d 0 -p tcp -e 1040 -c 2 -i 35 -a 2 -x {3.0 5.0 -1 ------- null}
r -t 0.238608 -s 3 -d 0 -p tcp -e 1040 -c 2 -i 34 -a 2 -x {3.0 5.0 3 ------- null}
+ -t 0.238608 -s 0 -d 1 -p tcp -e 1040 -c 2 -i 34 -a 2 -x {3.0 5.0 3 ------- null}
r -t 0.23944 -s 3 -d 0 -p tcp -e 1040 -c 2 -i 35 -a 2 -x {3.0 5.0 4 ------- null}
+ -t 0.23944 -s 0 -d 1 -p tcp -e 1040 -c 2 -i 35 -a 2 -x {3.0 5.0 4 ------- null}
r -t 0.240064 -s 1 -d 0 -p ack -e 40 -c 2 -i 28 -a 2 -x {5.0 3.0 2 ------- null}
+ -t 0.240064 -s 0 -d 3 -p ack -e 40 -c 2 -i 28 -a 2 -x {5.0 3.0 2 ------- null}
- -t 0.240064 -s 0 -d 3 -p ack -e 40 -c 2 -i 28 -a 2 -x {5.0 3.0 2 ------- null}
h -t 0.240064 -s 0 -d 3 -p ack -e 40 -c 2 -i 28 -a 2 -x {5.0 3.0 -1 ------- null}
- -t 0.242928 -s 0 -d 1 -p tcp -e 1040 -c 1 -i 33 -a 1 -x {2.0 4.0 6 ------- null}
h -t 0.242928 -s 0 -d 1 -p tcp -e 1040 -c 1 -i 33 -a 1 -x {2.0 4.0 -1 ------- null}
r -t 0.243096 -s 0 -d 3 -p ack -e 40 -c 2 -i 28 -a 2 -x {5.0 3.0 2 ------- null}
+ -t 0.243096 -s 3 -d 0 -p tcp -e 1040 -c 2 -i 36 -a 2 -x {3.0 5.0 5 ------- null}
- -t 0.243096 -s 3 -d 0 -p tcp -e 1040 -c 2 -i 36 -a 2 -x {3.0 5.0 5 ------- null}
h -t 0.243096 -s 3 -d 0 -p tcp -e 1040 -c 2 -i 36 -a 2 -x {3.0 5.0 -1 ------- null}
+ -t 0.243096 -s 3 -d 0 -p tcp -e 1040 -c 2 -i 37 -a 2 -x {3.0 5.0 6 ------- null}
- -t 0.243928 -s 3 -d 0 -p tcp -e 1040 -c 2 -i 37 -a 2 -x {3.0 5.0 6 ------- null}
h -t 0.243928 -s 3 -d 0 -p tcp -e 1040 -c 2 -i 37 -a 2 -x {3.0 5.0 -1 ------- null}
r -t 0.246288 -s 0 -d 1 -p tcp -e 1040 -c 1 -i 29 -a 1 -x {2.0 4.0 3 ------- null}
+ -t 0.246288 -s 1 -d 4 -p tcp -e 1040 -c 1 -i 29 -a 1 -x {2.0 4.0 3 ------- null}
- -t 0.246288 -s 1 -d 4 -p tcp -e 1040 -c 1 -i 29 -a 1 -x {2.0 4.0 3 ------- null}
h -t 0.246288 -s 1 -d 4 -p tcp -e 1040 -c 1 -i 29 -a 1 -x {2.0 4.0 -1 ------- null}
r -t 0.246928 -s 3 -d 0 -p tcp -e 1040 -c 2 -i 36 -a 2 -x {3.0 5.0 5 ------- null}
+ -t 0.246928 -s 0 -d 1 -p tcp -e 1040 -c 2 -i 36 -a 2 -x {3.0 5.0 5 ------- null}
r -t 0.24776 -s 3 -d 0 -p tcp -e 1040 -c 2 -i 37 -a 2 -x {3.0 5.0 6 ------- null}
+ -t 0.24776 -s 0 -d 1 -p tcp -e 1040 -c 2 -i 37 -a 2 -x {3.0 5.0 6 ------- null}
r -t 0.25112 -s 1 -d 4 -p tcp -e 1040 -c 1 -i 29 -a 1 -x {2.0 4.0 3 ------- null}
+ -t 0.25112 -s 4 -d 1 -p ack -e 40 -c 1 -i 38 -a 1 -x {4.0 2.0 3 ------- null}
- -t 0.25112 -s 4 -d 1 -p ack -e 40 -c 1 -i 38 -a 1 -x {4.0 2.0 3 ------- null}
h -t 0.25112 -s 4 -d 1 -p ack -e 40 -c 1 -i 38 -a 1 -x {4.0 2.0 -1 ------- null}
- -t 0.251248 -s 0 -d 1 -p tcp -e 1040 -c 2 -i 34 -a 2 -x {3.0 5.0 3 ------- null}
h -t 0.251248 -s 0 -d 1 -p tcp -e 1040 -c 2 -i 34 -a 2 -x {3.0 5.0 -1 ------- null}
r -t 0.254608 -s 0 -d 1 -p tcp -e 1040 -c 1 -i 30 -a 1 -x {2.0 4.0 4 ------- null}
+ -t 0.254608 -s 1 -d 4 -p tcp -e 1040 -c 1 -i 30 -a 1 -x {2.0 4.0 4 ------- null}
- -t 0.254608 -s 1 -d 4 -p tcp -e 1040 -c 1 -i 30 -a 1 -x {2.0 4.0 4 ------- null}
h -t 0.254608 -s 1 -d 4 -p tcp -e 1040 -c 1 -i 30 -a 1 -x {2.0 4.0 -1 ------- null}
r -t 0.255152 -s 4 -d 1 -p ack -e 40 -c 1 -i 38 -a 1 -x {4.0 2.0 3 ------- null}
+ -t 0.255152 -s 1 -d 0 -p ack -e 40 -c 1 -i 38 -a 1 -x {4.0 2.0 3 ------- null}
- -t 0.255152 -s 1 -d 0 -p ack -e 40 -c 1 -i 38 -a 1 -x {4.0 2.0 3 ------- null}
h -t 0.255152 -s 1 -d 0 -p ack -e 40 -c 1 -i 38 -a 1 -x {4.0 2.0 -1 ------- null}
r -t 0.25944 -s 1 -d 4 -p tcp -e 1040 -c 1 -i 30 -a 1 -x {2.0 4.0 4 ------- null}
+ -t 0.25944 -s 4 -d 1 -p ack -e 40 -c 1 -i 39 -a 1 -x {4.0 2.0 4 ------- null}
- -t 0.25944 -s 4 -d 1 -p ack -e 40 -c 1 -i 39 -a 1 -x {4.0 2.0 4 ------- null}
h -t 0.25944 -s 4 -d 1 -p ack -e 40 -c 1 -i 39 -a 1 -x {4.0 2.0 -1 ------- null}
- -t 0.259568 -s 0 -d 1 -p tcp -e 1040 -c 2 -i 35 -a 2 -x {3.0 5.0 4 ------- null}
h -t 0.259568 -s 0 -d 1 -p tcp -e 1040 -c 2 -i 35 -a 2 -x {3.0 5.0 -1 ------- null}
r -t 0.262928 -s 0 -d 1 -p tcp -e 1040 -c 1 -i 32 -a 1 -x {2.0 4.0 5 ------- null}
+ -t 0.262928 -s 1 -d 4 -p tcp -e 1040 -c 1 -i 32 -a 1 -x {2.0 4.0 5 ------- null}
- -t 0.262928 -s 1 -d 4 -p tcp -e 1040 -c 1 -i 32 -a 1 -x {2.0 4.0 5 ------- null}
h -t 0.262928 -s 1 -d 4 -p tcp -e 1040 -c 1 -i 32 -a 1 -x {2.0 4.0 -1 ------- null}
r -t 0.263472 -s 4 -d 1 -p ack -e 40 -c 1 -i 39 -a 1 -x {4.0 2.0 4 ------- null}
+ -t 0.263472 -s 1 -d 0 -p ack -e 40 -c 1 -i 39 -a 1 -x {4.0 2.0 4 ------- null}
- -t 0.263472 -s 1 -d 0 -p ack -e 40 -c 1 -i 39 -a 1 -x {4.0 2.0 4 ------- null}
h -t 0.263472 -s 1 -d 0 -p ack -e 40 -c 1 -i 39 -a 1 -x {4.0 2.0 -1 ------- null}
r -t 0.26776 -s 1 -d 4 -p tcp -e 1040 -c 1 -i 32 -a 1 -x {2.0 4.0 5 ------- null}
+ -t 0.26776 -s 4 -d 1 -p ack -e 40 -c 1 -i 40 -a 1 -x {4.0 2.0 5 ------- null}
- -t 0.26776 -s 4 -d 1 -p ack -e 40 -c 1 -i 40 -a 1 -x {4.0 2.0 5 ------- null}
h -t 0.26776 -s 4 -d 1 -p ack -e 40 -c 1 -i 40 -a 1 -x {4.0 2.0 -1 ------- null}
- -t 0.267888 -s 0 -d 1 -p tcp -e 1040 -c 2 -i 36 -a 2 -x {3.0 5.0 5 ------- null}
h -t 0.267888 -s 0 -d 1 -p tcp -e 1040 -c 2 -i 36 -a 2 -x {3.0 5.0 -1 ------- null}
r -t 0.271248 -s 0 -d 1 -p tcp -e 1040 -c 1 -i 33 -a 1 -x {2.0 4.0 6 ------- null}
+ -t 0.271248 -s 1 -d 4 -p tcp -e 1040 -c 1 -i 33 -a 1 -x {2.0 4.0 6 ------- null}
- -t 0.271248 -s 1 -d 4 -p tcp -e 1040 -c 1 -i 33 -a 1 -x {2.0 4.0 6 ------- null}
h -t 0.271248 -s 1 -d 4 -p tcp -e 1040 -c 1 -i 33 -a 1 -x {2.0 4.0 -1 ------- null}
r -t 0.271792 -s 4 -d 1 -p ack -e 40 -c 1 -i 40 -a 1 -x {4.0 2.0 5 ------- null}
+ -t 0.271792 -s 1 -d 0 -p ack -e 40 -c 1 -i 40 -a 1 -x {4.0 2.0 5 ------- null}
- -t 0.271792 -s 1 -d 0 -p ack -e 40 -c 1 -i 40 -a 1 -x {4.0 2.0 5 ------- null}
h -t 0.271792 -s 1 -d 0 -p ack -e 40 -c 1 -i 40 -a 1 -x {4.0 2.0 -1 ------- null}
r -t 0.275472 -s 1 -d 0 -p ack -e 40 -c 1 -i 38 -a 1 -x {4.0 2.0 3 ------- null}
+ -t 0.275472 -s 0 -d 2 -p ack -e 40 -c 1 -i 38 -a 1 -x {4.0 2.0 3 ------- null}
- -t 0.275472 -s 0 -d 2 -p ack -e 40 -c 1 -i 38 -a 1 -x {4.0 2.0 3 ------- null}
h -t 0.275472 -s 0 -d 2 -p ack -e 40 -c 1 -i 38 -a 1 -x {4.0 2.0 -1 ------- null}
r -t 0.27608 -s 1 -d 4 -p tcp -e 1040 -c 1 -i 33 -a 1 -x {2.0 4.0 6 ------- null}
+ -t 0.27608 -s 4 -d 1 -p ack -e 40 -c 1 -i 41 -a 1 -x {4.0 2.0 6 ------- null}
- -t 0.27608 -s 4 -d 1 -p ack -e 40 -c 1 -i 41 -a 1 -x {4.0 2.0 6 ------- null}
h -t 0.27608 -s 4 -d 1 -p ack -e 40 -c 1 -i 41 -a 1 -x {4.0 2.0 -1 ------- null}
- -t 0.276208 -s 0 -d 1 -p tcp -e 1040 -c 2 -i 37 -a 2 -x {3.0 5.0 6 ------- null}
h -t 0.276208 -s 0 -d 1 -p tcp -e 1040 -c 2 -i 37 -a 2 -x {3.0 5.0 -1 ------- null}
r -t 0.277504 -s 0 -d 2 -p ack -e 40 -c 1 -i 38 -a 1 -x {4.0 2.0 3 ------- null}
+ -t 0.277504 -s 2 -d 0 -p tcp -e 1040 -c 1 -i 42 -a 1 -x {2.0 4.0 7 ------- null}
- -t 0.277504 -s 2 -d 0 -p tcp -e 1040 -c 1 -i 42 -a 1 -x {2.0 4.0 7 ------- null}
h -t 0.277504 -s 2 -d 0 -p tcp -e 1040 -c 1 -i 42 -a 1 -x {2.0 4.0 -1 ------- null}
+ -t 0.277504 -s 2 -d 0 -p tcp -e 1040 -c 1 -i 43 -a 1 -x {2.0 4.0 8 ------- null}
+ -t 0.277940357931862 -s 1 -d 0 -p rtProtoDV -e 6 -c 0 -i 44 -a 0 -x {1.1 0.1 -1 ------- null}
- -t 0.277940357931862 -s 1 -d 0 -p rtProtoDV -e 6 -c 0 -i 44 -a 0 -x {1.1 0.1 -1 ------- null}
h -t 0.277940357931862 -s 1 -d 0 -p rtProtoDV -e 6 -c 0 -i 44 -a 0 -x {1.1 0.1 -1 ------- null}
+ -t 0.277940357931862 -s 1 -d 4 -p rtProtoDV -e 6 -c 0 -i 45 -a 0 -x {1.1 4.2 -1 ------- null}
- -t 0.277940357931862 -s 1 -d 4 -p rtProtoDV -e 6 -c 0 -i 45 -a 0 -x {1.1 4.2 -1 ------- null}
h -t 0.277940357931862 -s 1 -d 4 -p rtProtoDV -e 6 -c 0 -i 45 -a 0 -x {1.1 4.2 -1 ------- null}
+ -t 0.277940357931862 -s 1 -d 5 -p rtProtoDV -e 6 -c 0 -i 46 -a 0 -x {1.1 5.2 -1 ------- null}
- -t 0.277940357931862 -s 1 -d 5 -p rtProtoDV -e 6 -c 0 -i 46 -a 0 -x {1.1 5.2 -1 ------- null}
h -t 0.277940357931862 -s 1 -d 5 -p rtProtoDV -e 6 -c 0 -i 46 -a 0 -x {1.1 5.2 -1 ------- null}
- -t 0.278336 -s 2 -d 0 -p tcp -e 1040 -c 1 -i 43 -a 1 -x {2.0 4.0 8 ------- null}
h -t 0.278336 -s 2 -d 0 -p tcp -e 1040 -c 1 -i 43 -a 1 -x {2.0 4.0 -1 ------- null}
r -t 0.279568 -s 0 -d 1 -p tcp -e 1040 -c 2 -i 34 -a 2 -x {3.0 5.0 3 ------- null}
+ -t 0.279568 -s 1 -d 5 -p tcp -e 1040 -c 2 -i 34 -a 2 -x {3.0 5.0 3 ------- null}
- -t 0.279568 -s 1 -d 5 -p tcp -e 1040 -c 2 -i 34 -a 2 -x {3.0 5.0 3 ------- null}
h -t 0.279568 -s 1 -d 5 -p tcp -e 1040 -c 2 -i 34 -a 2 -x {3.0 5.0 -1 ------- null}
r -t 0.280112 -s 4 -d 1 -p ack -e 40 -c 1 -i 41 -a 1 -x {4.0 2.0 6 ------- null}
+ -t 0.280112 -s 1 -d 0 -p ack -e 40 -c 1 -i 41 -a 1 -x {4.0 2.0 6 ------- null}